 vasp.5.4.4.18Apr17-6-g9f103f2a35 (build Mar 30 2018 13:38:46) complex           
 executed on             LinuxGNU date 2018.04.26  13:14:44
 running on    6 total cores
 distrk:  each k-point on    2 cores,    3 groups
 distr:  one band on NCORES_PER_BAND=   1 cores,    2 groups


--------------------------------------------------------------------------------------------------------


 INCAR:
 POTCAR:    PAW_PBE Ti_sv 26Sep2005               
 POTCAR:    PAW_PBE O 08Apr2002                   
 POTCAR:    PAW_PBE Sr_sv 07Sep2000               
 POTCAR:    PAW_PBE V_sv 02Aug2007                

 ----------------------------------------------------------------------------- 
|                                                                             |
|           W    W    AA    RRRRR   N    N  II  N    N   GGGG   !!!           |
|           W    W   A  A   R    R  NN   N  II  NN   N  G    G  !!!           |
|           W    W  A    A  R    R  N N  N  II  N N  N  G       !!!           |
|           W WW W  AAAAAA  RRRRR   N  N N  II  N  N N  G  GGG   !            |
|           WW  WW  A    A  R   R   N   NN  II  N   NN  G    G                |
|           W    W  A    A  R    R  N    N  II  N    N   GGGG   !!!           |
|                                                                             |
|      For optimal performance we recommend to set                            |
|        NCORE= 4 - approx SQRT( number of cores)                             |
|      NCORE specifies how many cores store one orbital (NPAR=cpu/NCORE).     |
|      This setting can  greatly improve the performance of VASP for DFT.     |
|      The default,   NCORE=1            might be grossly inefficient         |
|      on modern multi-core architectures or massively parallel machines.     |
|      Do your own testing !!!!                                               |
|      Unfortunately you need to use the default for GW and RPA calculations. |
|      (for HF NCORE is supported but not extensively tested yet)             |
|                                                                             |
 ----------------------------------------------------------------------------- 


 ----------------------------------------------------------------------------- 
|                                                                             |
|           W    W    AA    RRRRR   N    N  II  N    N   GGGG   !!!           |
|           W    W   A  A   R    R  NN   N  II  NN   N  G    G  !!!           |
|           W    W  A    A  R    R  N N  N  II  N N  N  G       !!!           |
|           W WW W  AAAAAA  RRRRR   N  N N  II  N  N N  G  GGG   !            |
|           WW  WW  A    A  R   R   N   NN  II  N   NN  G    G                |
|           W    W  A    A  R    R  N    N  II  N    N   GGGG   !!!           |
|                                                                             |
|      You have enabled k-point parallelism (KPAR>1).                         |
|      This developmental code was originally  written by Paul Kent at ORNL,  |
|      and carefully double checked in Vienna.                                |
|      GW as well as linear response parallelism added by Martijn Marsman     |
|      and Georg Kresse.                                                      |
|      Carefully verify results versus KPAR=1.                                |
|      Report problems to Paul Kent and Vienna.                               |
|                                                                             |
 ----------------------------------------------------------------------------- 

 POTCAR:    PAW_PBE Ti_sv 26Sep2005               
   VRHFIN =Ti: 3p4s3d                                                           
   LEXCH  = PE                                                                  
   EATOM  =  1588.0892 eV,  116.7213 Ry                                         
                                                                                
   TITEL  = PAW_PBE Ti_sv 26Sep2005                                             
   LULTRA =        F    use ultrasoft PP ?                                      
   IUNSCR =        1    unscreen: 0-lin 1-nonlin 2-no                           
   RPACOR =    2.000    partial core radius                                     
   POMASS =   47.880; ZVAL   =   12.000    mass and valenz                      
   RCORE  =    2.300    outmost cutoff radius                                   
   RWIGS  =    2.300; RWIGS  =    1.217    wigner-seitz radius (au A)           
   ENMAX  =  274.610; ENMIN  =  205.957 eV                                      
   ICORE  =        3    local potential                                         
   LCOR   =        T    correct aug charges                                     
   LPAW   =        T    paw PP                                                  
   EAUG   =  482.848                                                            
   RMAX   =    2.348    core radius for proj-oper                               
   RAUG   =    1.300    factor for augmentation sphere                          
   RDEP   =    2.381    radius for radial grids                                 
   RDEPT  =    1.930    core radius for aug-charge                              
                                                                                
   Atomic configuration                                                         
    8 entries                                                                   
     n  l   j            E        occ.                                          
     1  0  0.50     -4865.3608   2.0000                                         
     2  0  0.50      -533.1368   2.0000                                         
     2  1  1.50      -440.5031   6.0000                                         
     3  0  0.50       -59.3186   2.0000                                         
     4  0  0.50        -3.7291   1.0000                                         
     3  1  1.50       -35.7012   6.0000                                         
     3  2  2.50        -1.9157   3.0000                                         
     4  3  2.50        -1.3606   0.0000                                         
   Description                                                                  
     l       E           TYP  RCUT    TYP  RCUT                                 
     0    -59.3185931     23  1.800                                             
     0     -3.7290822     23  2.300                                             
     1    -35.7012045     23  2.300                                             
     1     -1.3605826     23  2.300                                             
     2     -1.9156920     23  2.300                                             
     2     -0.0236318     23  2.300                                             
     3     -1.3605826     23  2.300                                             
  local pseudopotential read in
  partial core-charges read in
  partial kinetic energy density read in
  atomic valenz-charges read in
  non local Contribution for L=           0  read in
    real space projection operators read in
  non local Contribution for L=           0  read in
    real space projection operators read in
  non local Contribution for L=           1  read in
    real space projection operators read in
  non local Contribution for L=           1  read in
    real space projection operators read in
  non local Contribution for L=           2  read in
    real space projection operators read in
  non local Contribution for L=           2  read in
    real space projection operators read in
    PAW grid and wavefunctions read in

   number of l-projection  operators is LMAX  =           6
   number of lm-projection operators is LMMAX =          18

 POTCAR:    PAW_PBE O 08Apr2002                   
   VRHFIN =O: s2p4                                                              
   LEXCH  = PE                                                                  
   EATOM  =   432.3788 eV,   31.7789 Ry                                         
                                                                                
   TITEL  = PAW_PBE O 08Apr2002                                                 
   LULTRA =        F    use ultrasoft PP ?                                      
   IUNSCR =        1    unscreen: 0-lin 1-nonlin 2-no                           
   RPACOR =    1.200    partial core radius                                     
   POMASS =   16.000; ZVAL   =    6.000    mass and valenz                      
   RCORE  =    1.520    outmost cutoff radius                                   
   RWIGS  =    1.550; RWIGS  =    0.820    wigner-seitz radius (au A)           
   ENMAX  =  400.000; ENMIN  =  300.000 eV                                      
   ICORE  =        2    local potential                                         
   LCOR   =        T    correct aug charges                                     
   LPAW   =        T    paw PP                                                  
   EAUG   =  605.392                                                            
   DEXC   =    0.000                                                            
   RMAX   =    1.553    core radius for proj-oper                               
   RAUG   =    1.300    factor for augmentation sphere                          
   RDEP   =    1.550    radius for radial grids                                 
   RDEPT  =    1.329    core radius for aug-charge                              
                                                                                
   Atomic configuration                                                         
    4 entries                                                                   
     n  l   j            E        occ.                                          
     1  0  0.50      -514.6923   2.0000                                         
     2  0  0.50       -23.9615   2.0000                                         
     2  1  0.50        -9.0305   4.0000                                         
     3  2  1.50        -9.5241   0.0000                                         
   Description                                                                  
     l       E           TYP  RCUT    TYP  RCUT                                 
     0    -23.9615318     23  1.200                                             
     0     -9.5240782     23  1.200                                             
     1     -9.0304911     23  1.520                                             
     1      8.1634956     23  1.520                                             
     2     -9.5240782      7  1.500                                             
  local pseudopotential read in
  partial core-charges read in
  partial kinetic energy density read in
  kinetic energy density of atom read in
  atomic valenz-charges read in
  non local Contribution for L=           0  read in
    real space projection operators read in
  non local Contribution for L=           0  read in
    real space projection operators read in
  non local Contribution for L=           1  read in
    real space projection operators read in
  non local Contribution for L=           1  read in
    real space projection operators read in
    PAW grid and wavefunctions read in

   number of l-projection  operators is LMAX  =           4
   number of lm-projection operators is LMMAX =           8

 POTCAR:    PAW_PBE Sr_sv 07Sep2000               
   VRHFIN =Sr: 4s4p5s                                                           
   LEXCH  = PE                                                                  
   EATOM  =   843.0319 eV,   61.9611 Ry                                         
                                                                                
   TITEL  = PAW_PBE Sr_sv 07Sep2000                                             
   LULTRA =        F    use ultrasoft PP ?                                      
   IUNSCR =        1    unscreen: 0-lin 1-nonlin 2-no                           
   RPACOR =    2.200    partial core radius                                     
   POMASS =   87.620; ZVAL   =   10.000    mass and valenz                      
   RCORE  =    2.500    outmost cutoff radius                                   
   RWIGS  =    4.040; RWIGS  =    2.138    wigner-seitz radius (au A)           
   ENMAX  =  229.353; ENMIN  =  172.014 eV                                      
   RCLOC  =    2.201    cutoff for local pot                                    
   LCOR   =        T    correct aug charges                                     
   LPAW   =        T    paw PP                                                  
   EAUG   =  366.804                                                            
   DEXC   =    0.000                                                            
   RMAX   =    2.547    core radius for proj-oper                               
   RAUG   =    1.300    factor for augmentation sphere                          
   RDEP   =    2.562    radius for radial grids                                 
   RDEPT  =    2.128    core radius for aug-charge                              
                                                                                
   Atomic configuration                                                         
   10 entries                                                                   
     n  l   j            E        occ.                                          
     1  0  0.50    -15934.8930   2.0000                                         
     2  0  0.50     -2157.6250   2.0000                                         
     2  1  1.50     -1917.0034   6.0000                                         
     3  0  0.50      -333.7288   2.0000                                         
     3  1  1.50      -256.0992   6.0000                                         
     3  2  2.50      -127.9971  10.0000                                         
     4  0  0.50       -40.8953   2.0000                                         
     5  0  0.50        -3.5257   1.9990                                         
     4  1  1.50       -22.8179   6.0000                                         
     4  2  1.50        -1.2815   0.0010                                         
   Description                                                                  
     l       E           TYP  RCUT    TYP  RCUT                                 
     0    -40.8953213     23  2.480                                             
     0     -3.5257161     23  2.480                                             
     1    -22.8178632     23  2.500                                             
     1    -24.1784458     23  2.500                                             
     2     -1.2814598     23  2.500                                             
     2      0.2279365     23  2.500                                             
  local pseudopotential read in
  partial core-charges read in
  partial kinetic energy density read in
  atomic valenz-charges read in
  non local Contribution for L=           0  read in
    real space projection operators read in
  non local Contribution for L=           0  read in
    real space projection operators read in
  non local Contribution for L=           1  read in
    real space projection operators read in
  non local Contribution for L=           1  read in
    real space projection operators read in
  non local Contribution for L=           2  read in
    real space projection operators read in
  non local Contribution for L=           2  read in
    real space projection operators read in
    PAW grid and wavefunctions read in

   number of l-projection  operators is LMAX  =           6
   number of lm-projection operators is LMMAX =          18

 POTCAR:    PAW_PBE V_sv 02Aug2007                
   VRHFIN =V: p6 d4 s1                                                          
   LEXCH  = PE                                                                  
   EATOM  =  1952.1149 eV,  143.4764 Ry                                         
                                                                                
   TITEL  = PAW_PBE V_sv 02Aug2007                                              
   LULTRA =        F    use ultrasoft PP ?                                      
   IUNSCR =        1    unscreen: 0-lin 1-nonlin 2-no                           
   RPACOR =    2.000    partial core radius                                     
   POMASS =   50.941; ZVAL   =   13.000    mass and valenz                      
   RCORE  =    2.300    outmost cutoff radius                                   
   RWIGS  =    2.300; RWIGS  =    1.217    wigner-seitz radius (au A)           
   ENMAX  =  263.673; ENMIN  =  197.755 eV                                      
   ICORE  =        3    local potential                                         
   LCOR   =        T    correct aug charges                                     
   LPAW   =        T    paw PP                                                  
   EAUG   =  526.568                                                            
   RMAX   =    2.359    core radius for proj-oper                               
   RAUG   =    1.300    factor for augmentation sphere                          
   RDEP   =    2.430    radius for radial grids                                 
   RDEPT  =    1.870    core radius for aug-charge                              
                                                                                
   Atomic configuration                                                         
    8 entries                                                                   
     n  l   j            E        occ.                                          
     1  0  0.50     -5360.7193   2.0000                                         
     2  0  0.50      -598.4546   2.0000                                         
     2  1  1.50      -499.0155   6.0000                                         
     3  0  0.50       -66.5711   2.0000                                         
     4  0  0.50        -3.8743   1.0000                                         
     3  1  1.50       -40.5282   6.0000                                         
     3  2  2.50        -2.4291   4.0000                                         
     4  3  2.50        -1.3606   0.0000                                         
   Description                                                                  
     l       E           TYP  RCUT    TYP  RCUT                                 
     0    -66.5711413     23  1.800                                             
     0     -3.8742736     23  2.300                                             
     1    -40.5282350     23  2.000                                             
     1      5.4423304     23  2.000                                             
     2     -2.4290848     23  2.300                                             
     2     -1.0472431     23  2.300                                             
     3     -1.3605826     23  2.300                                             
  local pseudopotential read in
  partial core-charges read in
  partial kinetic energy density read in
  atomic valenz-charges read in
  non local Contribution for L=           0  read in
    real space projection operators read in
  non local Contribution for L=           0  read in
    real space projection operators read in
  non local Contribution for L=           1  read in
    real space projection operators read in
  non local Contribution for L=           1  read in
    real space projection operators read in
  non local Contribution for L=           2  read in
    real space projection operators read in
  non local Contribution for L=           2  read in
    real space projection operators read in
    PAW grid and wavefunctions read in

   number of l-projection  operators is LMAX  =           6
   number of lm-projection operators is LMMAX =          18

 Optimization of the real space projectors (new method)

 maximal supplied QI-value         = 16.25
 optimisation between [QCUT,QGAM] = [ 10.24, 20.48] = [ 29.35,117.42] Ry 
 Optimized for a Real-space Cutoff    1.34 Angstroem

   l    n(q)    QCUT    max X(q) W(low)/X(q) W(high)/X(q)  e(spline) 
   0      8    10.239    12.277    0.25E-04    0.71E-04    0.16E-07
   0      8    10.239    11.419    0.53E-04    0.11E-03    0.30E-07
   1      8    10.239     4.010    0.22E-04    0.72E-04    0.29E-07
   1      8    10.239     6.182    0.36E-03    0.20E-04    0.85E-07
   2      7    10.239    47.177    0.44E-03    0.46E-03    0.68E-07
   2      7    10.239    42.437    0.43E-03    0.44E-03    0.66E-07
 Optimization of the real space projectors (new method)

 maximal supplied QI-value         = 24.76
 optimisation between [QCUT,QGAM] = [ 10.15, 20.30] = [ 28.85,115.39] Ry 
 Optimized for a Real-space Cutoff    1.38 Angstroem

   l    n(q)    QCUT    max X(q) W(low)/X(q) W(high)/X(q)  e(spline) 
   0      8    10.150    20.381    0.22E-03    0.32E-03    0.29E-06
   0      8    10.150    15.268    0.23E-03    0.35E-03    0.30E-06
   1      8    10.150     5.964    0.46E-03    0.53E-03    0.21E-06
   1      8    10.150     5.382    0.38E-03    0.45E-03    0.19E-06
 Optimization of the real space projectors (new method)

 maximal supplied QI-value         = 15.12
 optimisation between [QCUT,QGAM] = [ 10.13, 20.41] = [ 28.73,116.64] Ry 
 Optimized for a Real-space Cutoff    1.60 Angstroem

   l    n(q)    QCUT    max X(q) W(low)/X(q) W(high)/X(q)  e(spline) 
   0     10    10.129    11.565    0.27E-04    0.92E-05    0.33E-07
   0     10    10.129    10.214    0.43E-04    0.16E-04    0.67E-07
   1      9    10.129   189.983    0.42E-03    0.33E-03    0.23E-06
   1      9    10.129   193.105    0.42E-03    0.33E-03    0.23E-06
   2      9    10.129   115.941    0.73E-04    0.52E-03    0.39E-06
   2      9    10.129    76.444    0.71E-04    0.51E-03    0.38E-06
 Optimization of the real space projectors (new method)

 maximal supplied QI-value         = 16.25
 optimisation between [QCUT,QGAM] = [ 10.24, 20.48] = [ 29.35,117.42] Ry 
 Optimized for a Real-space Cutoff    1.34 Angstroem

   l    n(q)    QCUT    max X(q) W(low)/X(q) W(high)/X(q)  e(spline) 
   0      8    10.239     2.784    0.54E-04    0.68E-04    0.35E-07
   0      8    10.239    21.205    0.30E-04    0.76E-04    0.23E-07
   1      8    10.239     3.152    0.20E-03    0.14E-03    0.61E-07
   1      8    10.239     5.587    0.45E-03    0.67E-03    0.23E-06
   2      7    10.239    55.619    0.48E-03    0.39E-03    0.71E-07
   2      7    10.239    52.293    0.47E-03    0.37E-03    0.69E-07

 ----------------------------------------------------------------------------- 
|                                                                             |
|  ADVICE TO THIS USER RUNNING 'VASP/VAMP'   (HEAR YOUR MASTER'S VOICE ...):  |
|                                                                             |
|      You enforced a specific xc-type in the INCAR file,                     |
|      a different type was found on the POTCAR file                          |
|          I HOPE YOU KNOW, WHAT YOU ARE  DOING                               |
|                                                                             |
 ----------------------------------------------------------------------------- 

  PAW_PBE Ti_sv 26Sep2005               :
 energy of atom  1       EATOM=-1588.0892
 kinetic energy error for atom=    0.0139 (will be added to EATOM!!)
  PAW_PBE O 08Apr2002                   :
 energy of atom  2       EATOM= -432.3788
 kinetic energy error for atom=    0.1156 (will be added to EATOM!!)
  PAW_PBE Sr_sv 07Sep2000               :
 energy of atom  3       EATOM= -843.0319
 kinetic energy error for atom=    0.0032 (will be added to EATOM!!)
  PAW_PBE V_sv 02Aug2007                :
 energy of atom  4       EATOM=-1952.1149
 kinetic energy error for atom=    0.0322 (will be added to EATOM!!)


 POSCAR: Ti  O Sr  V                             
  positions in cartesian coordinates
  No initial velocities read in
 exchange correlation table for  LEXCH =       14
   RHO(1)=    0.500       N(1)  =     2000
   RHO(2)=  100.500       N(2)  =     4000



--------------------------------------------------------------------------------------------------------


 ion  position               nearest neighbor table
   1  0.500  0.000  0.250-   4 1.95   5 1.95   7 1.95  10 1.95  12 1.95  13 1.95  16 3.38  17 3.38
                            18 3.38  19 3.38  18 3.38  19 3.38  16 3.38  17 3.38
   2  0.500  0.000  0.750-   4 1.95   5 1.95   9 1.95  11 1.95  14 1.95  15 1.95  16 3.38  17 3.38
                            18 3.38  19 3.38  18 3.38  19 3.38  16 3.38  17 3.38
   3  0.000  0.500  0.250-   6 1.95   7 1.95   8 1.95  10 1.95  12 1.95  13 1.95  16 3.38  17 3.38
                            18 3.38  19 3.38  16 3.38  17 3.38  18 3.38  19 3.38
   4  0.500  0.000  0.000-   1 1.95   2 1.95  16 2.76  18 2.76  18 2.76  16 2.76
   5  0.500  0.000  0.500-   1 1.95   2 1.95  17 2.76  19 2.76  19 2.76  17 2.76
   6  0.000  0.500  0.000-   3 1.95  20 1.95  18 2.76  16 2.76  16 2.76  18 2.76
   7  0.250  0.250  0.250-   1 1.95   3 1.95  16 2.76  17 2.76  18 2.76  19 2.76
   8  0.000  0.500  0.500-   3 1.95  20 1.95  19 2.76  17 2.76  17 2.76  19 2.76
   9  0.250  0.250  0.750-   2 1.95  20 1.95  17 2.76  18 2.76  19 2.76  16 2.76
  10  0.750  0.250  0.250-   1 1.95   3 1.95  16 2.76  17 2.76  18 2.76  19 2.76
  11  0.750  0.250  0.750-   2 1.95  20 1.95  17 2.76  18 2.76  19 2.76  16 2.76
  12  0.250  0.750  0.250-   1 1.95   3 1.95  16 2.76  17 2.76  18 2.76  19 2.76
  13  0.750  0.750  0.250-   1 1.95   3 1.95  16 2.76  17 2.76  18 2.76  19 2.76
  14  0.250  0.750  0.750-   2 1.95  20 1.95  17 2.76  18 2.76  19 2.76  16 2.76
  15  0.750  0.750  0.750-   2 1.95  20 1.95  17 2.76  18 2.76  19 2.76  16 2.76
  16  0.000  0.000  0.000-   4 2.76   6 2.76   7 2.76   9 2.76  10 2.76  11 2.76  12 2.76  13 2.76
                            14 2.76  15 2.76   6 2.76   4 2.76   1 3.38  20 3.38   3 3.38   2 3.38
  17  0.000  0.000  0.500-   5 2.76   7 2.76   8 2.76   9 2.76  10 2.76  11 2.76  12 2.76  13 2.76
                            14 2.76  15 2.76   8 2.76   5 2.76   1 3.38  20 3.38   3 3.38   2 3.38
  18  0.500  0.500  0.000-   4 2.76   6 2.76   7 2.76   9 2.76  10 2.76  11 2.76  12 2.76  13 2.76
                            14 2.76  15 2.76   4 2.76   6 2.76   1 3.38  20 3.38   1 3.38   2 3.38
  19  0.500  0.500  0.500-   5 2.76   7 2.76   8 2.76   9 2.76  10 2.76  11 2.76  12 2.76  13 2.76
                            14 2.76  15 2.76   5 2.76   8 2.76   1 3.38  20 3.38   1 3.38   2 3.38
  20  0.000  0.500  0.750-   6 1.95   8 1.95   9 1.95  11 1.95  14 1.95  15 1.95  16 3.38  17 3.38
                            18 3.38  19 3.38  16 3.38  17 3.38  18 3.38  19 3.38

  LATTYP: Found a simple tetragonal cell.
 ALAT       =     5.5154328933
 C/A-ratio  =     1.4142135624
  
  Lattice vectors:
  
 A1 = (   3.9000000000,  -3.9000000000,   0.0000000000)
 A2 = (   3.9000000000,   3.9000000000,   0.0000000000)
 A3 = (   0.0000000000,   0.0000000000,   7.8000000000)


Analysis of symmetry for initial positions (statically):
=====================================================================
 Subroutine PRICEL returns:
 Original cell was already a primitive cell.
 

 Routine SETGRP: Setting up the symmetry group for a 
 simple tetragonal supercell.


 Subroutine GETGRP returns: Found 16 space group operations
 (whereof  4 operations were pure point group operations)
 out of a pool of 16 trial point group operations.


The static configuration has the point symmetry C_2v.
 The point group associated with its full space group is D_4h.


Analysis of symmetry for dynamics (positions and initial velocities):
=====================================================================
 Subroutine PRICEL returns:
 Original cell was already a primitive cell.
 

 Routine SETGRP: Setting up the symmetry group for a 
 simple tetragonal supercell.


 Subroutine GETGRP returns: Found 16 space group operations
 (whereof  4 operations were pure point group operations)
 out of a pool of 16 trial point group operations.


The dynamic configuration has the point symmetry C_2v.
 The point group associated with its full space group is D_4h.


 Subroutine INISYM returns: Found 16 space group operations
 (whereof  4 operations are pure point group operations),
 and found     1 'primitive' translations



 KPOINTS: KPOINTS created by Atomic Simulation Env

Automatic generation of k-mesh.
Space group operators:
 irot       det(A)        alpha          n_x          n_y          n_z        tau_x        tau_y        tau_z
    1     1.000000     0.000000     1.000000     0.000000     0.000000     0.000000     0.000000     0.000000
    2     1.000000   180.000000     0.000000     0.000000     1.000000     0.000000     0.000000     0.000000
    3    -1.000000   180.000000     0.707107     0.707107     0.000000     0.000000     0.000000     0.000000
    4    -1.000000   180.000000     0.707107    -0.707107     0.000000     0.000000     0.000000     0.000000
    5    -1.000000     0.000000     1.000000     0.000000     0.000000     0.000000     0.000000     0.500000
    6     1.000000    90.000000     0.000000     0.000000    -1.000000     0.500000     0.500000     0.000000
    7    -1.000000    90.000000     0.000000     0.000000    -1.000000     0.500000     0.500000     0.500000
    8    -1.000000   180.000000     0.000000     0.000000     1.000000     0.000000     0.000000     0.500000
    9     1.000000    90.000000     0.000000     0.000000     1.000000     0.500000     0.500000     0.000000
   10    -1.000000    90.000000     0.000000     0.000000     1.000000     0.500000     0.500000     0.500000
   11     1.000000   180.000000     0.707107     0.707107     0.000000     0.000000     0.000000     0.500000
   12     1.000000   180.000000     1.000000     0.000000     0.000000     0.500000     0.500000     0.500000
   13    -1.000000   180.000000     1.000000     0.000000     0.000000     0.500000     0.500000     0.000000
   14     1.000000   180.000000     0.707107    -0.707107     0.000000     0.000000     0.000000     0.500000
   15     1.000000   180.000000    -0.000000     1.000000     0.000000     0.500000     0.500000     0.500000
   16    -1.000000   180.000000    -0.000000     1.000000     0.000000     0.500000     0.500000     0.000000
 
 Subroutine IBZKPT returns following result:
 ===========================================
 
 Found     30 irreducible k-points:
 
 Following reciprocal coordinates:
            Coordinates               Weight
  0.000000  0.000000  0.000000      1.000000
  0.166667  0.000000  0.000000      4.000000
  0.333333  0.000000  0.000000      4.000000
  0.500000  0.000000  0.000000      2.000000
  0.166667  0.166667  0.000000      4.000000
  0.333333  0.166667  0.000000      8.000000
  0.500000  0.166667  0.000000      4.000000
  0.333333  0.333333  0.000000      4.000000
  0.500000  0.333333  0.000000      4.000000
  0.500000  0.500000  0.000000      1.000000
  0.000000  0.000000  0.250000      2.000000
  0.166667  0.000000  0.250000      8.000000
  0.333333  0.000000  0.250000      8.000000
  0.500000  0.000000  0.250000      4.000000
  0.166667  0.166667  0.250000      8.000000
  0.333333  0.166667  0.250000     16.000000
  0.500000  0.166667  0.250000      8.000000
  0.333333  0.333333  0.250000      8.000000
  0.500000  0.333333  0.250000      8.000000
  0.500000  0.500000  0.250000      2.000000
  0.000000  0.000000  0.500000      1.000000
  0.166667  0.000000  0.500000      4.000000
  0.333333  0.000000  0.500000      4.000000
  0.500000  0.000000  0.500000      2.000000
  0.166667  0.166667  0.500000      4.000000
  0.333333  0.166667  0.500000      8.000000
  0.500000  0.166667  0.500000      4.000000
  0.333333  0.333333  0.500000      4.000000
  0.500000  0.333333  0.500000      4.000000
  0.500000  0.500000  0.500000      1.000000
 
 Following cartesian coordinates:
            Coordinates               Weight
  0.000000  0.000000  0.000000      1.000000
  0.021368 -0.021368  0.000000      4.000000
  0.042735 -0.042735  0.000000      4.000000
  0.064103 -0.064103  0.000000      2.000000
  0.042735  0.000000  0.000000      4.000000
  0.064103 -0.021368  0.000000      8.000000
  0.085470 -0.042735  0.000000      4.000000
  0.085470  0.000000  0.000000      4.000000
  0.106838 -0.021368  0.000000      4.000000
  0.128205  0.000000  0.000000      1.000000
  0.000000  0.000000  0.032051      2.000000
  0.021368 -0.021368  0.032051      8.000000
  0.042735 -0.042735  0.032051      8.000000
  0.064103 -0.064103  0.032051      4.000000
  0.042735  0.000000  0.032051      8.000000
  0.064103 -0.021368  0.032051     16.000000
  0.085470 -0.042735  0.032051      8.000000
  0.085470  0.000000  0.032051      8.000000
  0.106838 -0.021368  0.032051      8.000000
  0.128205  0.000000  0.032051      2.000000
  0.000000  0.000000  0.064103      1.000000
  0.021368 -0.021368  0.064103      4.000000
  0.042735 -0.042735  0.064103      4.000000
  0.064103 -0.064103  0.064103      2.000000
  0.042735  0.000000  0.064103      4.000000
  0.064103 -0.021368  0.064103      8.000000
  0.085470 -0.042735  0.064103      4.000000
  0.085470  0.000000  0.064103      4.000000
  0.106838 -0.021368  0.064103      4.000000
  0.128205  0.000000  0.064103      1.000000
 
 TETIRR: Found    216 inequivalent tetrahedra from      864


--------------------------------------------------------------------------------------------------------




 Dimension of arrays:
   k-points           NKPTS =     30   k-points in BZ     NKDIM =     30   number of bands    NBANDS=    120
   number of dos      NEDOS =   1001   number of ions     NIONS =     20
   non local maximal  LDIM  =      6   non local SUM 2l+1 LMDIM =     18
   total plane-waves  NPLWV =  31360
   max r-space proj   IRMAX =   2319   max aug-charges    IRDMAX=  62191
   dimension x,y,z NGX =    28 NGY =   28 NGZ =   40
   dimension x,y,z NGXF=    56 NGYF=   56 NGZF=   80
   support grid    NGXF=   112 NGYF=  112 NGZF=  160
   ions per type =               3  12   4   1
   NGX,Y,Z   is equivalent  to a cutoff of   8.44,  8.44,  8.53 a.u.
   NGXF,Y,Z  is equivalent  to a cutoff of  16.88, 16.88, 17.05 a.u.

 SYSTEM =  unknown system                          
 POSCAR =  Ti  O Sr  V                             

 Startparameter for this run:
   NWRITE =      2    write-flag & timer
   PREC   = normal    normal or accurate (medium, high low for compatibility)
   ISTART =      1    job   : 0-new  1-cont  2-samecut
   ICHARG =     10    charge: 1-file 2-atom 10-const
   ISPIN  =      1    spin polarized calculation?
   LNONCOLLINEAR =      F non collinear calculations
   LSORBIT =      F    spin-orbit coupling
   INIWAV =      1    electr: 0-lowe 1-rand  2-diag
   LASPH  =      F    aspherical Exc in radial PAW
   METAGGA=      F    non-selfconsistent MetaGGA calc.

 Electronic Relaxation 1
   ENCUT  =  400.0 eV  29.40 Ry    5.42 a.u.   8.99  8.99 12.72*2*pi/ulx,y,z
   ENINI  =  400.0     initial cutoff
   ENAUG  =  605.4 eV  augmentation charge cutoff
   NELM   =    100;   NELMIN=  2; NELMDL=  5     # of ELM steps 
   EDIFF  = 0.1E-06   stopping-criterion for ELM
   LREAL  =      T    real-space projection
   NLSPLINE    = F    spline interpolate recip. space projectors
   LCOMPAT=      F    compatible to vasp.4.4
   GGA_COMPAT  = T    GGA compatible to vasp.4.4-vasp.4.6
   LMAXPAW     = -100 max onsite density
   LMAXMIX     =    4 max onsite mixed and CHGCAR
   VOSKOWN=      0    Vosko Wilk Nusair interpolation
   ROPT   =   -0.00050  -0.00050  -0.00050  -0.00050
 Ionic relaxation
   EDIFFG = -.3E-02   stopping-criterion for IOM
   NSW    =      0    number of steps for IOM
   NBLOCK =      1;   KBLOCK =      1    inner block; outer block 
   IBRION =     -1    ionic relax: 0-MD 1-quasi-New 2-CG
   NFREE  =      0    steps in history (QN), initial steepest desc. (CG)
   ISIF   =      3    stress and relaxation
   IWAVPR =     10    prediction:  0-non 1-charg 2-wave 3-comb
   ISYM   =      2    0-nonsym 1-usesym 2-fastsym
   LCORR  =      T    Harris-Foulkes like correction to forces

   POTIM  = 0.1700    time-step for ionic-motion
   TEIN   =    0.0    initial temperature
   TEBEG  =    0.0;   TEEND  =   0.0 temperature during run
   SMASS  =   1.20    Nose mass-parameter (am)
   estimated Nose-frequenzy (Omega)   =  0.16E+11 period in steps =****** mass=   0.278E-27a.u.
   SCALEE = 1.0000    scale energy and forces
   NPACO  =    256;   APACO  = 16.0  distance and # of slots for P.C.
   PSTRESS=    0.0 pullay stress

  Mass of Ions in am
   POMASS =  47.88 16.00 87.62 50.94
  Ionic Valenz
   ZVAL   =  12.00  6.00 10.00 13.00
  Atomic Wigner-Seitz radii
   RWIGS  =  -1.00 -1.00 -1.00 -1.00
  virtual crystal weights 
   VCA    =   1.00  1.00  1.00  1.00
   NELECT =     161.0000    total number of electrons
   NUPDOWN=      -1.0000    fix difference up-down

 DOS related values:
   EMIN   =  10.00;   EMAX   =-10.00  energy-range for DOS
   EFERMI =   0.00
   ISMEAR =    -5;   SIGMA  =   0.05  broadening in eV -4-tet -1-fermi 0-gaus

 Electronic relaxation 2 (details)
   IALGO  =     38    algorithm
   LDIAG  =      T    sub-space diagonalisation (order eigenvalues)
   LSUBROT=      F    optimize rotation matrix (better conditioning)
   TURBO    =      0    0=normal 1=particle mesh
   IRESTART =      0    0=no restart 2=restart with 2 vectors
   NREBOOT  =      0    no. of reboots
   NMIN     =      0    reboot dimension
   EREF     =   0.00    reference energy to select bands
   IMIX   =      4    mixing-type and parameters
     AMIX     =   0.40;   BMIX     =  1.00
     AMIX_MAG =   1.60;   BMIX_MAG =  1.00
     AMIN     =   0.10
     WC   =   100.;   INIMIX=   1;  MIXPRE=   1;  MAXMIX= -45

 Intra band minimization:
   WEIMIN = 0.0000     energy-eigenvalue tresh-hold
   EBREAK =  0.21E-09  absolut break condition
   DEPER  =   0.30     relativ break condition  

   TIME   =   0.40     timestep for ELM

  volume/ion in A,a.u.               =      11.86        80.06
  Fermi-wavevector in a.u.,A,eV,Ry     =   1.438574  2.718511 28.157188  2.069495
  Thomas-Fermi vector in A             =   2.557526

 Write flags
   LWAVE        =      T    write WAVECAR
   LDOWNSAMPLE  =      F    k-point downsampling of WAVECAR
   LCHARG       =      T    write CHGCAR
   LVTOT        =      F    write LOCPOT, total local potential
   LVHAR        =      F    write LOCPOT, Hartree potential only
   LELF         =      F    write electronic localiz. function (ELF)
   LORBIT       =     11    0 simple, 1 ext, 2 COOP (PROOUT), +10 PAW based schemes


 Dipole corrections
   LMONO  =      F    monopole corrections only (constant potential shift)
   LDIPOL =      F    correct potential (dipole corrections)
   IDIPOL =      0    1-x, 2-y, 3-z, 4-all directions 
   EPSILON=  1.0000000 bulk dielectric constant

 Exchange correlation treatment:
   GGA     =    PS    GGA type
   LEXCH   =    14    internal setting for exchange type
   VOSKOWN=      0    Vosko Wilk Nusair interpolation
   LHFCALC =     F    Hartree Fock is set to
   LHFONE  =     F    Hartree Fock one center treatment
   AEXX    =    0.0000 exact exchange contribution

 Linear response parameters
   LEPSILON=     F    determine dielectric tensor
   LRPA    =     F    only Hartree local field effects (RPA)
   LNABLA  =     F    use nabla operator in PAW spheres
   LVEL    =     F    velocity operator in full k-point grid
   LINTERFAST=   F  fast interpolation
   KINTER  =     0    interpolate to denser k-point grid
   CSHIFT  =0.1000    complex shift for real part using Kramers Kronig
   OMEGAMAX=  -1.0    maximum frequency
   DEG_THRESHOLD= 0.2000000E-02 threshold for treating states as degnerate
   RTIME   =   -0.100 relaxation time in fs
  (WPLASMAI=    0.000 imaginary part of plasma frequency in eV, 0.658/RTIME)
   DFIELD  = 0.0000000 0.0000000 0.0000000 field for delta impulse in time

 Orbital magnetization related:
   ORBITALMAG=     F  switch on orbital magnetization
   LCHIMAG   =     F  perturbation theory with respect to B field
   DQ        =  0.001000  dq finite difference perturbation B field
   LLRAUG    =     F  two centre corrections for induced B field



--------------------------------------------------------------------------------------------------------


 Static calculation
 charge density and potential remain constant during run
 non-spin polarized calculation
 Variant of blocked Davidson
 Davidson routine will perform the subspace rotation
 perform sub-space diagonalisation
    after iterative eigenvector-optimisation
 no mixing
 using additional bands           39
 real space projection scheme for non local part
 use partial core corrections
 calculate Harris-corrections to forces   (improved forces if not selfconsistent)
 use gradient corrections 
 WARNING: stress and forces are not correct
  (second derivative of E(xc) not defined)
 use of overlap-Matrix (Vanderbilt PP)
 Fermi weights with tetrahedron method with Bloechl corrections


--------------------------------------------------------------------------------------------------------


  energy-cutoff  :      400.00
  volume of cell :      237.28
      direct lattice vectors                 reciprocal lattice vectors
     3.900000000 -3.900000000  0.000000000     0.128205128 -0.128205128  0.000000000
     3.900000000  3.900000000  0.000000000     0.128205128  0.128205128 -0.000000000
     0.000000000  0.000000000  7.800000000    -0.000000000  0.000000000  0.128205128

  length of vectors
     5.515432893  5.515432893  7.800000000     0.181309431  0.181309431  0.128205128



 old parameters found on file WAVECAR:
  energy-cutoff  :      400.00
  volume of cell :      237.28
      direct lattice vectors                 reciprocal lattice vectors
     3.900000000 -3.900000000  0.000000000     0.128205128 -0.128205128  0.000000000
     3.900000000  3.900000000  0.000000000     0.128205128  0.128205128 -0.000000000
     0.000000000  0.000000000  7.800000000    -0.000000000  0.000000000  0.128205128

  length of vectors


 k-points in units of 2pi/SCALE and weight: KPOINTS created by Atomic Simulation Env
   0.00000000  0.00000000  0.00000000       0.007
   0.02136752 -0.02136752  0.00000000       0.028
   0.04273504 -0.04273504  0.00000000       0.028
   0.06410256 -0.06410256  0.00000000       0.014
   0.04273504  0.00000000  0.00000000       0.028
   0.06410256 -0.02136752  0.00000000       0.056
   0.08547009 -0.04273504  0.00000000       0.028
   0.08547009  0.00000000  0.00000000       0.028
   0.10683761 -0.02136752  0.00000000       0.028
   0.12820513  0.00000000  0.00000000       0.007
   0.00000000  0.00000000  0.03205128       0.014
   0.02136752 -0.02136752  0.03205128       0.056
   0.04273504 -0.04273504  0.03205128       0.056
   0.06410256 -0.06410256  0.03205128       0.028
   0.04273504  0.00000000  0.03205128       0.056
   0.06410256 -0.02136752  0.03205128       0.111
   0.08547009 -0.04273504  0.03205128       0.056
   0.08547009  0.00000000  0.03205128       0.056
   0.10683761 -0.02136752  0.03205128       0.056
   0.12820513  0.00000000  0.03205128       0.014
   0.00000000  0.00000000  0.06410256       0.007
   0.02136752 -0.02136752  0.06410256       0.028
   0.04273504 -0.04273504  0.06410256       0.028
   0.06410256 -0.06410256  0.06410256       0.014
   0.04273504  0.00000000  0.06410256       0.028
   0.06410256 -0.02136752  0.06410256       0.056
   0.08547009 -0.04273504  0.06410256       0.028
   0.08547009  0.00000000  0.06410256       0.028
   0.10683761 -0.02136752  0.06410256       0.028
   0.12820513  0.00000000  0.06410256       0.007

 k-points in reciprocal lattice and weights: KPOINTS created by Atomic Simulation Env
   0.00000000  0.00000000  0.00000000       0.007
   0.16666667  0.00000000  0.00000000       0.028
   0.33333333  0.00000000  0.00000000       0.028
   0.50000000  0.00000000  0.00000000       0.014
   0.16666667  0.16666667  0.00000000       0.028
   0.33333333  0.16666667  0.00000000       0.056
   0.50000000  0.16666667  0.00000000       0.028
   0.33333333  0.33333333  0.00000000       0.028
   0.50000000  0.33333333  0.00000000       0.028
   0.50000000  0.50000000  0.00000000       0.007
   0.00000000  0.00000000  0.25000000       0.014
   0.16666667  0.00000000  0.25000000       0.056
   0.33333333  0.00000000  0.25000000       0.056
   0.50000000  0.00000000  0.25000000       0.028
   0.16666667  0.16666667  0.25000000       0.056
   0.33333333  0.16666667  0.25000000       0.111
   0.50000000  0.16666667  0.25000000       0.056
   0.33333333  0.33333333  0.25000000       0.056
   0.50000000  0.33333333  0.25000000       0.056
   0.50000000  0.50000000  0.25000000       0.014
   0.00000000  0.00000000  0.50000000       0.007
   0.16666667  0.00000000  0.50000000       0.028
   0.33333333  0.00000000  0.50000000       0.028
   0.50000000  0.00000000  0.50000000       0.014
   0.16666667  0.16666667  0.50000000       0.028
   0.33333333  0.16666667  0.50000000       0.056
   0.50000000  0.16666667  0.50000000       0.028
   0.33333333  0.33333333  0.50000000       0.028
   0.50000000  0.33333333  0.50000000       0.028
   0.50000000  0.50000000  0.50000000       0.007

 position of ions in fractional coordinates (direct lattice) 
   0.50000000  0.00000000  0.25000000
   0.50000000  0.00000000  0.75000000
   0.00000000  0.50000000  0.25000000
   0.50000000  0.00000000  0.00000000
   0.50000000  0.00000000  0.50000000
   0.00000000  0.50000000  0.00000000
   0.25000000  0.25000000  0.25000000
   0.00000000  0.50000000  0.50000000
   0.25000000  0.25000000  0.75000000
   0.75000000  0.25000000  0.25000000
   0.75000000  0.25000000  0.75000000
   0.25000000  0.75000000  0.25000000
   0.75000000  0.75000000  0.25000000
   0.25000000  0.75000000  0.75000000
   0.75000000  0.75000000  0.75000000
   0.00000000  0.00000000  0.00000000
   0.00000000  0.00000000  0.50000000
   0.50000000  0.50000000  0.00000000
   0.50000000  0.50000000  0.50000000
   0.00000000  0.50000000  0.75000000

 position of ions in cartesian coordinates  (Angst):
   1.95000000 -1.95000000  1.95000000
   1.95000000 -1.95000000  5.85000000
   1.95000000  1.95000000  1.95000000
   1.95000000 -1.95000000  0.00000000
   1.95000000 -1.95000000  3.90000000
   1.95000000  1.95000000  0.00000000
   1.95000000  0.00000000  1.95000000
   1.95000000  1.95000000  3.90000000
   1.95000000  0.00000000  5.85000000
   3.90000000 -1.95000000  1.95000000
   3.90000000 -1.95000000  5.85000000
   3.90000000  1.95000000  1.95000000
   5.85000000  0.00000000  1.95000000
   3.90000000  1.95000000  5.85000000
   5.85000000  0.00000000  5.85000000
   0.00000000  0.00000000  0.00000000
   0.00000000  0.00000000  3.90000000
   3.90000000  0.00000000  0.00000000
   3.90000000  0.00000000  3.90000000
   1.95000000  1.95000000  5.85000000



--------------------------------------------------------------------------------------------------------


 k-point  1 :   0.0000 0.0000 0.0000  plane waves:    4273
 k-point  2 :   0.1667 0.0000 0.0000  plane waves:    4302
 k-point  3 :   0.3333 0.0000 0.0000  plane waves:    4310
 k-point  4 :   0.5000 0.0000 0.0000  plane waves:    4302
 k-point  5 :   0.1667 0.1667 0.0000  plane waves:    4319
 k-point  6 :   0.3333 0.1667 0.0000  plane waves:    4325
 k-point  7 :   0.5000 0.1667 0.0000  plane waves:    4312
 k-point  8 :   0.3333 0.3333 0.0000  plane waves:    4311
 k-point  9 :   0.5000 0.3333 0.0000  plane waves:    4314
 k-point 10 :   0.5000 0.5000 0.0000  plane waves:    4328
 k-point 11 :   0.0000 0.0000 0.2500  plane waves:    4289
 k-point 12 :   0.1667 0.0000 0.2500  plane waves:    4292
 k-point 13 :   0.3333 0.0000 0.2500  plane waves:    4312
 k-point 14 :   0.5000 0.0000 0.2500  plane waves:    4298
 k-point 15 :   0.1667 0.1667 0.2500  plane waves:    4297
 k-point 16 :   0.3333 0.1667 0.2500  plane waves:    4310
 k-point 17 :   0.5000 0.1667 0.2500  plane waves:    4316
 k-point 18 :   0.3333 0.3333 0.2500  plane waves:    4314
 k-point 19 :   0.5000 0.3333 0.2500  plane waves:    4316
 k-point 20 :   0.5000 0.5000 0.2500  plane waves:    4332
 k-point 21 :   0.0000 0.0000 0.5000  plane waves:    4282
 k-point 22 :   0.1667 0.0000 0.5000  plane waves:    4302
 k-point 23 :   0.3333 0.0000 0.5000  plane waves:    4282
 k-point 24 :   0.5000 0.0000 0.5000  plane waves:    4276
 k-point 25 :   0.1667 0.1667 0.5000  plane waves:    4312
 k-point 26 :   0.3333 0.1667 0.5000  plane waves:    4290
 k-point 27 :   0.5000 0.1667 0.5000  plane waves:    4316
 k-point 28 :   0.3333 0.3333 0.5000  plane waves:    4318
 k-point 29 :   0.5000 0.3333 0.5000  plane waves:    4352
 k-point 30 :   0.5000 0.5000 0.5000  plane waves:    4360

 maximum and minimum number of plane-waves per node :      4360     4273

 maximum number of plane-waves:      4360
 maximum index in each direction: 
   IXMAX=    8   IYMAX=    8   IZMAX=   12
   IXMIN=   -9   IYMIN=   -9   IZMIN=  -13


 serial   3D FFT for wavefunctions
 parallel 3D FFT for charge:
    minimum data exchange during FFTs selected (reduces bandwidth)


 total amount of memory used by VASP MPI-rank0   196030. kBytes
=======================================================================

   base      :      30000. kBytes
   nonlr-proj:       4127. kBytes
   fftplans  :      18638. kBytes
   grid      :      10474. kBytes
   one-center:        311. kBytes
   wavefun   :     132480. kBytes

     INWAV:  cpu time    0.4462: real time    0.4462
 charge density for first step will be calculated from the start-wavefunctions


--------------------------------------------------------------------------------------------------------


 Maximum index for non-local projection operator         2165
 Maximum index for augmentation-charges        30117 (set IRDMAX)


--------------------------------------------------------------------------------------------------------


 initial charge from wavefunction
 First call to EWALD:  gamma=   0.286
 Maximum number of real-space cells 3x 3x 2
 Maximum number of reciprocal cells 3x 3x 3

    FEWALD:  cpu time    0.0025: real time    0.0025


--------------------------------------- Iteration      1(   1)  ---------------------------------------


    POTLOK:  cpu time    0.0814: real time    0.0814
    SETDIJ:  cpu time    0.0925: real time    0.0925
     EDDAV:  cpu time    6.7615: real time    6.7615
 BZINTS: Fermi energy:  5.672468;161.000000 electrons
         Band energy:***********;  BLOECHL correction: -0.043973
       DOS:  cpu time    0.0413: real time    0.0413
    --------------------------------------------
      LOOP:  cpu time    6.9768: real time    6.9768

 eigenvalue-minimisations  :  9424
 total energy-change (2. order) :-0.1672312E+03  (-0.1520902E-03)
 number of electron     160.9999976 magnetization 
 augmentation part       24.9714030 magnetization 

 Free energy of the ion-electron system (eV)
  ---------------------------------------------------
  alpha Z        PSCENC =       929.81918075
  Ewald energy   TEWEN  =    -11745.00517519
  -Hartree energ DENC   =     -3592.83650534
  -exchange      EXHF   =         0.00000000
  -V(xc)+E(xc)   XCENC  =       746.66379182
  PAW double counting   =     20653.49578776   -20584.13447741
  entropy T*S    EENTRO =         0.00000000
  eigenvalues    EBANDS =     -1819.15998243
  atomic energy  EATOM  =     15243.92616255
  Solvation  Ediel_sol  =         0.00000000
  ---------------------------------------------------
  free energy    TOTEN  =      -167.23121748 eV

  energy without entropy =     -167.23121748  energy(sigma->0) =     -167.23121748


--------------------------------------------------------------------------------------------------------




--------------------------------------- Iteration      1(   2)  ---------------------------------------


     EDDAV:  cpu time    6.2669: real time    6.2669
 BZINTS: Fermi energy:  5.672468;161.000000 electrons
         Band energy:***********;  BLOECHL correction: -0.043973
       DOS:  cpu time    0.0397: real time    0.0397
    --------------------------------------------
      LOOP:  cpu time    6.3066: real time    6.3065

 eigenvalue-minimisations  :  8552
 total energy-change (2. order) :-0.1900311E-04  (-0.1900397E-04)
 number of electron     160.9999976 magnetization 
 augmentation part       24.9714030 magnetization 

 Free energy of the ion-electron system (eV)
  ---------------------------------------------------
  alpha Z        PSCENC =       929.81918075
  Ewald energy   TEWEN  =    -11745.00517519
  -Hartree energ DENC   =     -3592.83650534
  -exchange      EXHF   =         0.00000000
  -V(xc)+E(xc)   XCENC  =       746.66379182
  PAW double counting   =     20653.49578776   -20584.13447741
  entropy T*S    EENTRO =         0.00000000
  eigenvalues    EBANDS =     -1819.16000143
  atomic energy  EATOM  =     15243.92616255
  Solvation  Ediel_sol  =         0.00000000
  ---------------------------------------------------
  free energy    TOTEN  =      -167.23123649 eV

  energy without entropy =     -167.23123649  energy(sigma->0) =     -167.23123649


--------------------------------------------------------------------------------------------------------




--------------------------------------- Iteration      1(   3)  ---------------------------------------


     EDDAV:  cpu time    7.5005: real time    7.5005
 BZINTS: Fermi energy:  5.672468;161.000000 electrons
         Band energy:***********;  BLOECHL correction: -0.043973
       DOS:  cpu time    0.0407: real time    0.0407
    --------------------------------------------
      LOOP:  cpu time    7.5412: real time    7.5412

 eigenvalue-minimisations  : 10640
 total energy-change (2. order) :-0.5051807E-06  (-0.5049234E-06)
 number of electron     160.9999976 magnetization 
 augmentation part       24.9714030 magnetization 

 Free energy of the ion-electron system (eV)
  ---------------------------------------------------
  alpha Z        PSCENC =       929.81918075
  Ewald energy   TEWEN  =    -11745.00517519
  -Hartree energ DENC   =     -3592.83650534
  -exchange      EXHF   =         0.00000000
  -V(xc)+E(xc)   XCENC  =       746.66379182
  PAW double counting   =     20653.49578776   -20584.13447741
  entropy T*S    EENTRO =         0.00000000
  eigenvalues    EBANDS =     -1819.16000194
  atomic energy  EATOM  =     15243.92616255
  Solvation  Ediel_sol  =         0.00000000
  ---------------------------------------------------
  free energy    TOTEN  =      -167.23123699 eV

  energy without entropy =     -167.23123699  energy(sigma->0) =     -167.23123699


--------------------------------------------------------------------------------------------------------




--------------------------------------- Iteration      1(   4)  ---------------------------------------


     EDDAV:  cpu time    5.1646: real time    5.1646
 BZINTS: Fermi energy:  5.672468;161.000000 electrons
         Band energy:***********;  BLOECHL correction: -0.043973
       DOS:  cpu time    0.0407: real time    0.0407
    --------------------------------------------
      LOOP:  cpu time    5.2054: real time    5.2053

 eigenvalue-minimisations  :  6672
 total energy-change (2. order) :-0.9520591E-08  (-0.9510690E-08)
 number of electron     160.9999976 magnetization 
 augmentation part       24.9714030 magnetization 

 Free energy of the ion-electron system (eV)
  ---------------------------------------------------
  alpha Z        PSCENC =       929.81918075
  Ewald energy   TEWEN  =    -11745.00517519
  -Hartree energ DENC   =     -3592.83650534
  -exchange      EXHF   =         0.00000000
  -V(xc)+E(xc)   XCENC  =       746.66379182
  PAW double counting   =     20653.49578776   -20584.13447741
  entropy T*S    EENTRO =         0.00000000
  eigenvalues    EBANDS =     -1819.16000195
  atomic energy  EATOM  =     15243.92616255
  Solvation  Ediel_sol  =         0.00000000
  ---------------------------------------------------
  free energy    TOTEN  =      -167.23123700 eV

  energy without entropy =     -167.23123700  energy(sigma->0) =     -167.23123700


--------------------------------------------------------------------------------------------------------




--------------------------------------- Iteration      1(   5)  ---------------------------------------


     EDDAV:  cpu time    4.1417: real time    4.1417
 BZINTS: Fermi energy:  5.672468;161.000000 electrons
         Band energy:***********;  BLOECHL correction: -0.043973
       DOS:  cpu time    0.0409: real time    0.0409
    --------------------------------------------
      LOOP:  cpu time    4.1826: real time    4.1826

 eigenvalue-minimisations  :  4800
 total energy-change (2. order) :-0.9204086E-09  (-0.1021899E-08)
 number of electron     160.9999976 magnetization 
 augmentation part       24.9714030 magnetization 

 Free energy of the ion-electron system (eV)
  ---------------------------------------------------
  alpha Z        PSCENC =       929.81918075
  Ewald energy   TEWEN  =    -11745.00517519
  -Hartree energ DENC   =     -3592.83650534
  -exchange      EXHF   =         0.00000000
  -V(xc)+E(xc)   XCENC  =       746.66379182
  PAW double counting   =     20653.49578776   -20584.13447741
  entropy T*S    EENTRO =         0.00000000
  eigenvalues    EBANDS =     -1819.16000195
  atomic energy  EATOM  =     15243.92616255
  Solvation  Ediel_sol  =         0.00000000
  ---------------------------------------------------
  free energy    TOTEN  =      -167.23123700 eV

  energy without entropy =     -167.23123700  energy(sigma->0) =     -167.23123700


--------------------------------------------------------------------------------------------------------




--------------------------------------- Iteration      1(   6)  ---------------------------------------


     EDDAV:  cpu time    3.8332: real time    3.8332
 BZINTS: Fermi energy:  5.672468;161.000000 electrons
         Band energy:***********;  BLOECHL correction: -0.043973
       DOS:  cpu time    0.0389: real time    0.0389
    --------------------------------------------
      LOOP:  cpu time    3.8721: real time    3.8721

 eigenvalue-minimisations  :  4272
 total energy-change (2. order) :-0.2291927E-09  (-0.4385829E-09)
 number of electron     160.9999976 magnetization 
 augmentation part       24.9714030 magnetization 

 Free energy of the ion-electron system (eV)
  ---------------------------------------------------
  alpha Z        PSCENC =       929.81918075
  Ewald energy   TEWEN  =    -11745.00517519
  -Hartree energ DENC   =     -3592.83650534
  -exchange      EXHF   =         0.00000000
  -V(xc)+E(xc)   XCENC  =       746.66379182
  PAW double counting   =     20653.49578776   -20584.13447741
  entropy T*S    EENTRO =         0.00000000
  eigenvalues    EBANDS =     -1819.16000195
  atomic energy  EATOM  =     15243.92616255
  Solvation  Ediel_sol  =         0.00000000
  ---------------------------------------------------
  free energy    TOTEN  =      -167.23123700 eV

  energy without entropy =     -167.23123700  energy(sigma->0) =     -167.23123700


--------------------------------------------------------------------------------------------------------




 average (electrostatic) potential at core
  the test charge radii are     1.0397  0.7215  1.1929  0.9956
  (the norm of the test charge is              1.0000)
       1 -76.0890       2 -75.9982       3 -76.1455       4 -69.5547       5 -69.5547
       6 -69.8579       7 -69.5562       8 -69.8579       9 -69.8036      10 -69.5562
      11 -69.8036      12 -69.5562      13 -69.5562      14 -69.8036      15 -69.8036
      16 -34.3344      17 -34.3344      18 -34.3344      19 -34.3344      20 -76.6297



 E-fermi :   5.6725     XC(G=0): -11.5679     alpha+bet :-14.0880


 k-point     1 :       0.0000    0.0000    0.0000
  band No.  band energies     occupation 
      1     -60.2120      2.00000
      2     -52.0547      2.00000
      3     -51.9965      2.00000
      4     -51.9181      2.00000
      5     -34.2184      2.00000
      6     -34.1054      2.00000
      7     -34.1054      2.00000
      8     -28.6557      2.00000
      9     -28.6299      2.00000
     10     -28.5847      2.00000
     11     -28.5654      2.00000
     12     -28.4874      2.00000
     13     -28.4874      2.00000
     14     -28.4701      2.00000
     15     -28.4007      2.00000
     16     -28.4007      2.00000
     17     -28.3871      2.00000
     18     -28.3492      2.00000
     19     -28.3492      2.00000
     20     -28.3207      2.00000
     21     -13.6746      2.00000
     22     -13.4132      2.00000
     23     -12.7742      2.00000
     24     -12.5905      2.00000
     25     -12.5905      2.00000
     26     -12.4392      2.00000
     27     -12.3778      2.00000
     28     -12.2857      2.00000
     29     -12.2762      2.00000
     30     -12.0453      2.00000
     31     -12.0453      2.00000
     32     -11.9471      2.00000
     33     -10.9305      2.00000
     34     -10.9305      2.00000
     35     -10.9276      2.00000
     36     -10.6505      2.00000
     37     -10.6505      2.00000
     38     -10.6482      2.00000
     39     -10.5999      2.00000
     40     -10.5999      2.00000
     41     -10.5368      2.00000
     42     -10.2347      2.00000
     43     -10.2347      2.00000
     44     -10.0543      2.00000
     45      -0.9490      2.00000
     46      -0.7600      2.00000
     47      -0.6431      2.00000
     48      -0.4684      2.00000
     49      -0.4004      2.00000
     50      -0.1842      2.00000
     51      -0.1425      2.00000
     52       0.1591      2.00000
     53       0.1591      2.00000
     54       0.1904      2.00000
     55       0.8972      2.00000
     56       0.8972      2.00000
     57       0.9965      2.00000
     58       1.0425      2.00000
     59       1.0425      2.00000
     60       1.1661      2.00000
     61       1.1661      2.00000
     62       1.4417      2.00000
     63       1.5449      2.00000
     64       1.5449      2.00000
     65       1.9333      2.00000
     66       2.1315      2.00000
     67       2.3554      2.00000
     68       2.3554      2.00000
     69       2.7902      2.00000
     70       2.7902      2.00000
     71       2.7932      2.00000
     72       3.1823      2.00000
     73       3.1823      2.00000
     74       3.5939      2.00000
     75       3.6145      2.00000
     76       3.6145      2.00000
     77       3.8334      2.00000
     78       3.9558      2.00000
     79       3.9558      2.00000
     80       4.0137      2.00000
     81       5.1554      2.00000
     82       5.3638      2.31396
     83       5.3638      2.45864
     84       6.0206      0.00000
     85       7.1356      0.00000
     86       7.1356      0.00000
     87       7.4270      0.00000
     88       7.5821      0.00000
     89       7.9002      0.00000
     90       7.9155      0.00000
     91       7.9155      0.00000
     92       8.4670      0.00000
     93       8.4670      0.00000
     94       8.5005      0.00000
     95       8.5144      0.00000
     96       9.1537      0.00000
     97       9.2935      0.00000
     98       9.3077      0.00000
     99      10.0495      0.00000
    100      10.3412      0.00000
    101      10.8792      0.00000
    102      10.8847      0.00000
    103      10.8847      0.00000
    104      11.2442      0.00000
    105      11.3509      0.00000
    106      11.8625      0.00000
    107      11.8629      0.00000
    108      11.9969      0.00000
    109      12.2344      0.00000
    110      12.2863      0.00000
    111      12.3479      0.00000
    112      12.3479      0.00000
    113      12.3538      0.00000
    114      12.5917      0.00000
    115      13.4338      0.00000
    116      13.4338      0.00000
    117      13.5681      0.00000
    118      13.5681      0.00000
    119      13.7182      0.00000
    120      13.7208      0.00000

 k-point     2 :       0.1667    0.0000    0.0000
  band No.  band energies     occupation 
      1     -60.2121      2.00000
      2     -52.0548      2.00000
      3     -51.9966      2.00000
      4     -51.9182      2.00000
      5     -34.2184      2.00000
      6     -34.1056      2.00000
      7     -34.1054      2.00000
      8     -28.6481      2.00000
      9     -28.6324      2.00000
     10     -28.5969      2.00000
     11     -28.5684      2.00000
     12     -28.4834      2.00000
     13     -28.4757      2.00000
     14     -28.4708      2.00000
     15     -28.4048      2.00000
     16     -28.4008      2.00000
     17     -28.3904      2.00000
     18     -28.3493      2.00000
     19     -28.3458      2.00000
     20     -28.3213      2.00000
     21     -13.6060      2.00000
     22     -13.4016      2.00000
     23     -12.9758      2.00000
     24     -12.5853      2.00000
     25     -12.4580      2.00000
     26     -12.4447      2.00000
     27     -12.3699      2.00000
     28     -12.3432      2.00000
     29     -12.2777      2.00000
     30     -12.1906      2.00000
     31     -12.0642      2.00000
     32     -12.0331      2.00000
     33     -10.9089      2.00000
     34     -10.8132      2.00000
     35     -10.7921      2.00000
     36     -10.6415      2.00000
     37     -10.6226      2.00000
     38     -10.6210      2.00000
     39     -10.5763      2.00000
     40     -10.5450      2.00000
     41     -10.5184      2.00000
     42     -10.2620      2.00000
     43     -10.2418      2.00000
     44     -10.0907      2.00000
     45      -0.8460      2.00000
     46      -0.6315      2.00000
     47      -0.5501      2.00000
     48      -0.3870      2.00000
     49      -0.2922      2.00000
     50      -0.1475      2.00000
     51      -0.0251      2.00000
     52       0.0788      2.00000
     53       0.1876      2.00000
     54       0.2660      2.00000
     55       0.7623      2.00000
     56       0.7923      2.00000
     57       0.8753      2.00000
     58       0.9651      2.00000
     59       1.0332      2.00000
     60       1.0715      2.00000
     61       1.1110      2.00000
     62       1.1560      2.00000
     63       1.1891      2.00000
     64       2.1402      2.00000
     65       2.2261      2.00000
     66       2.2516      2.00000
     67       2.3666      2.00000
     68       2.3688      2.00000
     69       2.4640      2.00000
     70       2.6020      2.00000
     71       2.7862      2.00000
     72       2.8242      2.00000
     73       3.0318      2.00000
     74       3.2704      2.00000
     75       3.4256      2.00000
     76       3.4728      2.00000
     77       3.7063      2.00000
     78       3.8256      2.00000
     79       3.8641      2.00000
     80       3.9057      2.00000
     81       5.4247      2.08568
     82       5.4909      2.05379
     83       5.5369      1.33431
     84       6.3111      0.00000
     85       7.1081      0.00000
     86       7.1337      0.00000
     87       7.6688      0.00000
     88       7.7501      0.00000
     89       7.8186      0.00000
     90       7.8501      0.00000
     91       7.8708      0.00000
     92       8.3816      0.00000
     93       8.3866      0.00000
     94       8.4020      0.00000
     95       8.8375      0.00000
     96       9.1671      0.00000
     97       9.5335      0.00000
     98       9.5471      0.00000
     99      10.3615      0.00000
    100      10.5007      0.00000
    101      11.0398      0.00000
    102      11.0694      0.00000
    103      11.1531      0.00000
    104      11.3762      0.00000
    105      11.5371      0.00000
    106      11.6594      0.00000
    107      11.9092      0.00000
    108      12.1545      0.00000
    109      12.2138      0.00000
    110      12.2293      0.00000
    111      12.3426      0.00000
    112      12.3765      0.00000
    113      12.4217      0.00000
    114      12.4933      0.00000
    115      13.1704      0.00000
    116      13.2763      0.00000
    117      13.4037      0.00000
    118      13.4796      0.00000
    119      13.4892      0.00000
    120      13.5524      0.00000

 k-point     3 :       0.3333    0.0000    0.0000
  band No.  band energies     occupation 
      1     -60.2121      2.00000
      2     -52.0548      2.00000
      3     -51.9967      2.00000
      4     -51.9182      2.00000
      5     -34.2183      2.00000
      6     -34.1058      2.00000
      7     -34.1054      2.00000
      8     -28.6361      2.00000
      9     -28.6280      2.00000
     10     -28.6174      2.00000
     11     -28.5802      2.00000
     12     -28.4739      2.00000
     13     -28.4708      2.00000
     14     -28.4555      2.00000
     15     -28.4144      2.00000
     16     -28.4034      2.00000
     17     -28.3980      2.00000
     18     -28.3493      2.00000
     19     -28.3380      2.00000
     20     -28.3225      2.00000
     21     -13.4847      2.00000
     22     -13.3006      2.00000
     23     -13.1950      2.00000
     24     -12.6116      2.00000
     25     -12.5713      2.00000
     26     -12.4607      2.00000
     27     -12.4590      2.00000
     28     -12.3683      2.00000
     29     -12.2513      2.00000
     30     -12.2424      2.00000
     31     -12.1695      2.00000
     32     -12.1130      2.00000
     33     -10.8496      2.00000
     34     -10.6842      2.00000
     35     -10.6226      2.00000
     36     -10.5893      2.00000
     37     -10.5669      2.00000
     38     -10.5423      2.00000
     39     -10.5393      2.00000
     40     -10.4234      2.00000
     41     -10.3835      2.00000
     42     -10.3357      2.00000
     43     -10.2562      2.00000
     44     -10.1991      2.00000
     45      -0.7283      2.00000
     46      -0.4207      2.00000
     47      -0.3165      2.00000
     48      -0.0702      2.00000
     49      -0.0368      2.00000
     50       0.0080      2.00000
     51       0.1249      2.00000
     52       0.2498      2.00000
     53       0.2800      2.00000
     54       0.2995      2.00000
     55       0.4125      2.00000
     56       0.5590      2.00000
     57       0.7339      2.00000
     58       0.7391      2.00000
     59       0.7767      2.00000
     60       0.9119      2.00000
     61       1.0523      2.00000
     62       1.0741      2.00000
     63       1.3574      2.00000
     64       1.6895      2.00000
     65       2.0483      2.00000
     66       2.1299      2.00000
     67       2.1693      2.00000
     68       2.4220      2.00000
     69       2.4744      2.00000
     70       2.6428      2.00000
     71       2.6795      2.00000
     72       2.7669      2.00000
     73       2.8325      2.00000
     74       2.9440      2.00000
     75       3.1453      2.00000
     76       3.1882      2.00000
     77       3.3656      2.00000
     78       3.5195      2.00000
     79       3.5460      2.00000
     80       3.7415      2.00000
     81       5.7549      0.43556
     82       5.8601     -0.05747
     83       5.8601     -0.00902
     84       6.8917      0.00000
     85       7.0474      0.00000
     86       7.1407      0.00000
     87       7.6250      0.00000
     88       7.7173      0.00000
     89       7.7680      0.00000
     90       7.8261      0.00000
     91       8.0278      0.00000
     92       8.2293      0.00000
     93       8.2585      0.00000
     94       8.4638      0.00000
     95       9.1705      0.00000
     96       9.6589      0.00000
     97      10.1617      0.00000
     98      10.2046      0.00000
     99      10.8190      0.00000
    100      10.9706      0.00000
    101      11.1286      0.00000
    102      11.4608      0.00000
    103      11.4963      0.00000
    104      11.5271      0.00000
    105      11.6571      0.00000
    106      11.7480      0.00000
    107      11.7854      0.00000
    108      11.8538      0.00000
    109      12.0711      0.00000
    110      12.2533      0.00000
    111      12.3703      0.00000
    112      12.4838      0.00000
    113      12.6287      0.00000
    114      12.7600      0.00000
    115      12.8565      0.00000
    116      12.8712      0.00000
    117      12.8968      0.00000
    118      12.9379      0.00000
    119      13.0494      0.00000
    120      13.2437      0.00000

 k-point     4 :       0.5000    0.0000    0.0000
  band No.  band energies     occupation 
      1     -60.2121      2.00000
      2     -52.0547      2.00000
      3     -51.9966      2.00000
      4     -51.9182      2.00000
      5     -34.2183      2.00000
      6     -34.1058      2.00000
      7     -34.1054      2.00000
      8     -28.6358      2.00000
      9     -28.6283      2.00000
     10     -28.6039      2.00000
     11     -28.6006      2.00000
     12     -28.4698      2.00000
     13     -28.4678      2.00000
     14     -28.4454      2.00000
     15     -28.4206      2.00000
     16     -28.4065      2.00000
     17     -28.4024      2.00000
     18     -28.3493      2.00000
     19     -28.3339      2.00000
     20     -28.3230      2.00000
     21     -13.4422      2.00000
     22     -13.3082      2.00000
     23     -12.9967      2.00000
     24     -12.9796      2.00000
     25     -12.5604      2.00000
     26     -12.5099      2.00000
     27     -12.4708      2.00000
     28     -12.3244      2.00000
     29     -12.2571      2.00000
     30     -12.2270      2.00000
     31     -12.1926      2.00000
     32     -12.1671      2.00000
     33     -10.7718      2.00000
     34     -10.7632      2.00000
     35     -10.5957      2.00000
     36     -10.5951      2.00000
     37     -10.4421      2.00000
     38     -10.4329      2.00000
     39     -10.3990      2.00000
     40     -10.3744      2.00000
     41     -10.3721      2.00000
     42     -10.3464      2.00000
     43     -10.3118      2.00000
     44     -10.2918      2.00000
     45      -0.7107      2.00000
     46      -0.3361      2.00000
     47      -0.1243      2.00000
     48      -0.0146      2.00000
     49      -0.0073      2.00000
     50       0.0150      2.00000
     51       0.3932      2.00000
     52       0.3975      2.00000
     53       0.3998      2.00000
     54       0.4116      2.00000
     55       0.4170      2.00000
     56       0.5525      2.00000
     57       0.7242      2.00000
     58       0.7263      2.00000
     59       0.7594      2.00000
     60       0.8550      2.00000
     61       0.8925      2.00000
     62       1.0730      2.00000
     63       1.1849      2.00000
     64       1.2326      2.00000
     65       1.6853      2.00000
     66       1.7623      2.00000
     67       2.1579      2.00000
     68       2.2640      2.00000
     69       2.5010      2.00000
     70       2.6420      2.00000
     71       2.7390      2.00000
     72       2.9089      2.00000
     73       2.9660      2.00000
     74       2.9907      2.00000
     75       3.0940      2.00000
     76       3.1671      2.00000
     77       3.2422      2.00000
     78       3.2454      2.00000
     79       3.3732      2.00000
     80       3.4720      2.00000
     81       5.9011     -0.06497
     82       6.0181      0.00000
     83       6.0688      0.00000
     84       7.0045      0.00000
     85       7.1552      0.00000
     86       7.4127      0.00000
     87       7.4768      0.00000
     88       7.6196      0.00000
     89       7.6526      0.00000
     90       7.7065      0.00000
     91       7.8997      0.00000
     92       8.1479      0.00000
     93       8.1760      0.00000
     94       8.9358      0.00000
     95       9.1675      0.00000
     96      10.5842      0.00000
     97      10.6359      0.00000
     98      10.6817      0.00000
     99      10.8691      0.00000
    100      10.9027      0.00000
    101      11.0425      0.00000
    102      11.1911      0.00000
    103      11.2000      0.00000
    104      11.6877      0.00000
    105      11.8765      0.00000
    106      11.8805      0.00000
    107      11.8837      0.00000
    108      11.8969      0.00000
    109      12.2219      0.00000
    110      12.2861      0.00000
    111      12.2923      0.00000
    112      12.2968      0.00000
    113      12.3095      0.00000
    114      12.3540      0.00000
    115      12.7025      0.00000
    116      12.7146      0.00000
    117      12.8981      0.00000
    118      12.9618      0.00000
    119      13.4128      0.00000
    120      13.4356      0.00000

 k-point     5 :       0.1667    0.1667    0.0000
  band No.  band energies     occupation 
      1     -60.2121      2.00000
      2     -52.0549      2.00000
      3     -51.9967      2.00000
      4     -51.9183      2.00000
      5     -34.2184      2.00000
      6     -34.1056      2.00000
      7     -34.1056      2.00000
      8     -28.6409      2.00000
      9     -28.6356      2.00000
     10     -28.6078      2.00000
     11     -28.5702      2.00000
     12     -28.4746      2.00000
     13     -28.4722      2.00000
     14     -28.4716      2.00000
     15     -28.4083      2.00000
     16     -28.3992      2.00000
     17     -28.3940      2.00000
     18     -28.3459      2.00000
     19     -28.3454      2.00000
     20     -28.3219      2.00000
     21     -13.5606      2.00000
     22     -13.3972      2.00000
     23     -13.1156      2.00000
     24     -12.5115      2.00000
     25     -12.4664      2.00000
     26     -12.4183      2.00000
     27     -12.4070      2.00000
     28     -12.3536      2.00000
     29     -12.2668      2.00000
     30     -12.2008      2.00000
     31     -12.1898      2.00000
     32     -12.1105      2.00000
     33     -10.8372      2.00000
     34     -10.7193      2.00000
     35     -10.7140      2.00000
     36     -10.6380      2.00000
     37     -10.6357      2.00000
     38     -10.5849      2.00000
     39     -10.5522      2.00000
     40     -10.4929      2.00000
     41     -10.4735      2.00000
     42     -10.3130      2.00000
     43     -10.2140      2.00000
     44     -10.1178      2.00000
     45      -0.8252      2.00000
     46      -0.5783      2.00000
     47      -0.4583      2.00000
     48      -0.3961      2.00000
     49      -0.2005      2.00000
     50      -0.0739      2.00000
     51      -0.0574      2.00000
     52       0.2512      2.00000
     53       0.2593      2.00000
     54       0.3332      2.00000
     55       0.4150      2.00000
     56       0.5774      2.00000
     57       0.8922      2.00000
     58       0.8976      2.00000
     59       0.9429      2.00000
     60       1.0867      2.00000
     61       1.1467      2.00000
     62       1.1582      2.00000
     63       1.4129      2.00000
     64       1.8812      2.00000
     65       2.1877      2.00000
     66       2.3234      2.00000
     67       2.3510      2.00000
     68       2.4236      2.00000
     69       2.4236      2.00000
     70       2.5444      2.00000
     71       2.6776      2.00000
     72       2.8319      2.00000
     73       2.8387      2.00000
     74       2.8721      2.00000
     75       3.4370      2.00000
     76       3.4505      2.00000
     77       3.5609      2.00000
     78       3.6306      2.00000
     79       3.7145      2.00000
     80       3.9322      2.00000
     81       5.3908      2.22519
     82       5.6556      0.72182
     83       5.7997      0.05741
[...]
    106      12.0607      0.00000
    107      12.0842      0.00000
    108      12.0865      0.00000
    109      12.3758      0.00000
    110      12.4000      0.00000
    111      12.4051      0.00000
    112      12.4215      0.00000
    113      12.8621      0.00000
    114      12.8727      0.00000
    115      12.8752      0.00000
    116      12.8780      0.00000
    117      13.1935      0.00000
    118      13.2047      0.00000
    119      13.2057      0.00000
    120      13.2130      0.00000

 k-point    30 :       0.5000    0.5000    0.5000
  band No.  band energies     occupation 
      1     -60.2122      2.00000
      2     -52.0550      2.00000
      3     -51.9969      2.00000
      4     -51.9184      2.00000
      5     -34.2183      2.00000
      6     -34.1059      2.00000
      7     -34.1059      2.00000
      8     -28.6407      2.00000
      9     -28.6407      2.00000
     10     -28.6087      2.00000
     11     -28.6087      2.00000
     12     -28.4860      2.00000
     13     -28.4476      2.00000
     14     -28.4476      2.00000
     15     -28.4010      2.00000
     16     -28.3942      2.00000
     17     -28.3942      2.00000
     18     -28.3443      2.00000
     19     -28.3351      2.00000
     20     -28.3351      2.00000
     21     -13.4450      2.00000
     22     -13.3532      2.00000
     23     -13.2964      2.00000
     24     -13.2216      2.00000
     25     -12.4711      2.00000
     26     -12.4711      2.00000
     27     -12.4064      2.00000
     28     -12.3788      2.00000
     29     -12.2930      2.00000
     30     -12.2435      2.00000
     31     -12.2435      2.00000
     32     -12.2272      2.00000
     33     -10.5736      2.00000
     34     -10.5734      2.00000
     35     -10.5662      2.00000
     36     -10.5658      2.00000
     37     -10.4158      2.00000
     38     -10.4158      2.00000
     39     -10.3782      2.00000
     40     -10.3782      2.00000
     41     -10.2082      2.00000
     42     -10.1957      2.00000
     43     -10.1551      2.00000
     44     -10.1489      2.00000
     45      -0.6636      2.00000
     46      -0.5986      2.00000
     47      -0.3465      2.00000
     48      -0.3338      2.00000
     49      -0.1540      2.00000
     50      -0.1540      2.00000
     51      -0.0609      2.00000
     52      -0.0609      2.00000
     53       0.2267      2.00000
     54       0.2330      2.00000
     55       0.5917      2.00000
     56       0.6098      2.00000
     57       0.9667      2.00000
     58       0.9667      2.00000
     59       1.0650      2.00000
     60       1.0650      2.00000
     61       1.1248      2.00000
     62       1.2826      2.00000
     63       1.3827      2.00000
     64       1.3931      2.00000
     65       1.9869      2.00000
     66       1.9869      2.00000
     67       2.1199      2.00000
     68       2.1199      2.00000
     69       2.4160      2.00000
     70       2.4492      2.00000
     71       2.4704      2.00000
     72       2.4704      2.00000
     73       2.4740      2.00000
     74       2.5551      2.00000
     75       2.6665      2.00000
     76       2.6665      2.00000
     77       3.2554      2.00000
     78       3.2554      2.00000
     79       3.3345      2.00000
     80       3.3345      2.00000
     81       5.9546      0.00000
     82       5.9546      0.00000
     83       6.4685      0.00000
     84       7.0704      0.00000
     85       7.0704      0.00000
     86       7.7201      0.00000
     87       7.7201      0.00000
     88       7.8992      0.00000
     89       7.9326      0.00000
     90       7.9446      0.00000
     91       7.9735      0.00000
     92       8.0222      0.00000
     93       8.0222      0.00000
     94       8.1383      0.00000
     95       9.2180      0.00000
     96       9.2518      0.00000
     97      10.7709      0.00000
     98      11.1647      0.00000
     99      11.4805      0.00000
    100      11.5759      0.00000
    101      11.7203      0.00000
    102      11.7203      0.00000
    103      11.7357      0.00000
    104      11.7357      0.00000
    105      12.3428      0.00000
    106      12.3428      0.00000
    107      12.3698      0.00000
    108      12.3698      0.00000
    109      12.4154      0.00000
    110      12.4437      0.00000
    111      12.4513      0.00000
    112      12.4602      0.00000
    113      12.7203      0.00000
    114      12.7455      0.00000
    115      12.7493      0.00000
    116      12.7581      0.00000
    117      13.4817      0.00000
    118      13.4817      0.00000
    119      13.4873      0.00000
    120      13.4873      0.00000


--------------------------------------------------------------------------------------------------------


 soft charge-density along one line, spin component           1
         0         1         2         3         4         5         6         7         8         9
 total charge-density along one line

 pseudopotential strength for first ion, spin component:           1
 -3.461 -21.465  -0.000   0.000  -0.000   0.000  -0.000   0.000
-21.465   9.217  -0.000   0.000  -0.000  -0.000   0.000  -0.000
 -0.000  -0.000 -24.806  -0.000  -0.000   8.718   0.000   0.000
  0.000   0.000  -0.000 -24.792  -0.000   0.000   8.709   0.000
 -0.000  -0.000  -0.000  -0.000 -24.806   0.000   0.000   8.718
  0.000  -0.000   8.718   0.000   0.000   5.798  -0.000  -0.000
 -0.000   0.000   0.000   8.709   0.000  -0.000   5.802  -0.000
  0.000  -0.000   0.000   0.000   8.718  -0.000  -0.000   5.798
 -0.000  -0.000  -0.000  -0.000  -0.000   0.000   0.000   0.000
 -0.000  -0.000   0.000  -0.000  -0.000  -0.000   0.000   0.000
  0.006   0.001   0.000   0.000   0.000  -0.000  -0.000  -0.000
 -0.000  -0.000  -0.000  -0.000   0.000   0.000   0.000  -0.000
 -0.000  -0.000   0.000  -0.000  -0.000  -0.000   0.000   0.000
 -0.000  -0.000  -0.000  -0.000  -0.000   0.000   0.000   0.000
 -0.000  -0.000   0.000  -0.000  -0.000  -0.000   0.000   0.000
  0.008   0.001   0.000   0.000   0.000  -0.000  -0.000  -0.000
 -0.000  -0.000  -0.000  -0.000   0.000   0.000   0.000  -0.000
 -0.000  -0.000   0.000  -0.000  -0.000  -0.000   0.000   0.000
 total augmentation occupancy for first ion, spin component:           1
  1.993  -0.084   0.000   0.000   0.000   0.000  -0.000   0.000  -0.000   0.000   0.003   0.000   0.000  -0.000   0.000  -0.003
 -0.084   1.552   0.000  -0.000  -0.000   0.000   0.000   0.000   0.000   0.000  -0.003  -0.000   0.000   0.000   0.000   0.002
  0.000   0.000   1.973  -0.000   0.000  -0.058   0.000  -0.000   0.000   0.000   0.000   0.000   0.000   0.000   0.000   0.000
  0.000  -0.000  -0.000   1.973   0.000   0.000  -0.058   0.000  -0.000   0.000   0.000   0.000   0.000   0.000   0.000   0.000
  0.000   0.000   0.000   0.000   1.973  -0.000   0.000  -0.058   0.000   0.000   0.000  -0.000   0.000   0.000   0.000   0.000
  0.000   0.000  -0.058   0.000   0.000   0.214   0.000   0.000   0.000   0.000   0.000   0.000  -0.000   0.000   0.000   0.000
  0.000  -0.000   0.000  -0.058   0.000   0.000   0.214   0.000   0.000   0.000   0.000   0.000   0.000   0.000   0.000   0.000
  0.000   0.000  -0.000   0.000  -0.058   0.000   0.000   0.214   0.000   0.000  -0.000   0.000   0.000   0.000   0.000   0.000
 -0.000   0.000   0.000   0.000   0.000   0.000   0.000   0.000   2.758   0.000   0.000   0.000   0.000  -1.588   0.000   0.000
  0.000   0.000   0.000   0.000   0.000   0.000   0.000   0.000   0.000   2.776  -0.000   0.000   0.000   0.000  -1.586   0.000
  0.003  -0.003   0.000   0.000  -0.000   0.000   0.000   0.000  -0.000  -0.000   9.343   0.000  -0.000   0.000  -0.000  -6.082
  0.000   0.000   0.000   0.000   0.000   0.000   0.000   0.000   0.000   0.000   0.000   2.776   0.000   0.000   0.000   0.000
  0.000  -0.000   0.000   0.000   0.000   0.000   0.000   0.000   0.000   0.000  -0.000   0.000   9.337   0.000   0.000   0.000
  0.000   0.000   0.000   0.000   0.000   0.000   0.000   0.000  -1.588   0.000  -0.000   0.000   0.000   0.920   0.000   0.000
  0.000   0.000   0.000   0.000   0.000   0.000   0.000   0.000   0.000  -1.586  -0.000   0.000   0.000   0.000   0.924   0.000
 -0.003   0.002   0.000   0.000   0.000   0.000   0.000   0.000   0.000   0.000  -6.082   0.000   0.000   0.000   0.000   4.015
  0.000  -0.000   0.000   0.000   0.000   0.000   0.000   0.000   0.000   0.000   0.000  -1.586   0.000  -0.000   0.000  -0.000
  0.000  -0.000   0.000  -0.000   0.000   0.000   0.000   0.000   0.000   0.000   0.000   0.000  -6.076   0.000   0.000  -0.000


------------------------ aborting loop because EDIFF is reached ----------------------------------------





 total charge     

# of ion       s       p       d       tot
------------------------------------------
    1        2.231   6.328   1.791  10.350
    2        2.226   6.318   1.805  10.349
    3        2.230   6.324   1.799  10.353
    4        1.586   3.486   0.000   5.072
    5        1.586   3.486   0.000   5.072
    6        1.585   3.470   0.000   5.055
    7        1.584   3.505   0.000   5.089
    8        1.585   3.470   0.000   5.055
    9        1.583   3.484   0.000   5.068
   10        1.587   3.470   0.000   5.057
   11        1.587   3.447   0.000   5.033
   12        1.587   3.470   0.000   5.057
   13        1.584   3.505   0.000   5.089
   14        1.587   3.447   0.000   5.033
   15        1.583   3.484   0.000   5.068
   16        1.997   5.753   0.206   7.956
   17        1.997   5.753   0.206   7.956
   18        1.997   5.754   0.205   7.955
   19        1.997   5.754   0.205   7.955
   20        2.283   6.337   2.862  11.481
--------------------------------------------------
tot         35.980  90.044   9.080 135.104

    CHARGE:  cpu time    0.3001: real time    0.3001
    FORLOC:  cpu time    0.0188: real time    0.0188
    FORNL :  cpu time    2.0140: real time    2.0141
    STRESS:  cpu time    6.1697: real time    6.1697
    FORCOR:  cpu time    0.0925: real time    0.0925
    FORHAR:  cpu time    0.0358: real time    0.0358
    OFIELD:  cpu time    0.0003: real time    0.0003

  FORCE on cell =-STRESS in cart. coord.  units (eV):
  Direction    XX          YY          ZZ          XY          YZ          ZX
  --------------------------------------------------------------------------------------
  Alpha Z   929.81918   929.81918   929.81918
  Ewald   -3914.57848 -3914.57848 -3915.88027     0.00000    -0.00000     0.00000
  Hartree  1198.47066  1198.47066  1196.21416    -0.00000    -0.00000    -0.00000
  E(xc)    -763.23900  -763.23900  -763.25400    -0.00000     0.00000    -0.00000
  Local     -37.33628   -37.33628   -32.00189    -0.00000    -0.00000    -0.00000
  n-local  -622.64133  -618.14735  -620.23064    -0.55098    -0.09931    -0.17492
  augment   345.54145   345.54145   344.55516     0.00000     0.00000     0.00001
  Kinetic  2849.44294  2849.78633  2847.95640    11.71268     0.59916     0.31066
  Fock        0.00000     0.00000     0.00000     0.00000     0.00000     0.00000
  -------------------------------------------------------------------------------------
  Total     -12.10218   -12.10218   -12.82190    -0.00000     0.00000    -0.00000
  in kB     -81.71848   -81.71848   -86.57831    -0.00000     0.00000    -0.00000
  external pressure =      -83.34 kB  Pullay stress =        0.00 kB


 VOLUME and BASIS-vectors are now :
 -----------------------------------------------------------------------------
  energy-cutoff  :      400.00
  volume of cell :      237.28
      direct lattice vectors                 reciprocal lattice vectors
     3.900000000 -3.900000000  0.000000000     0.128205128 -0.128205128  0.000000000
     3.900000000  3.900000000  0.000000000     0.128205128  0.128205128 -0.000000000
     0.000000000  0.000000000  7.800000000    -0.000000000  0.000000000  0.128205128

  length of vectors
     5.515432893  5.515432893  7.800000000     0.181309431  0.181309431  0.128205128


 FORCES acting on ions
    electron-ion (+dipol)            ewald-force                    non-local-force                 convergence-correction
 -----------------------------------------------------------------------------------------------
   0.427E-12 -.455E-12 0.662E-11   -.939E-13 0.308E-13 -.534E-14   0.165E-23 0.827E-24 0.000E+00   0.286E-13 0.606E-14 -.377E-13
   0.436E-12 -.470E-12 0.198E-11   -.804E-13 0.354E-13 -.662E-33   -.703E-23 -.414E-24 0.662E-23   0.140E-13 0.174E-13 0.327E-13
   0.460E-12 0.464E-12 -.608E-12   -.887E-13 0.440E-13 -.695E-14   -.827E-24 0.827E-24 0.000E+00   0.521E-14 -.861E-14 -.555E-13
   0.167E-12 -.175E-12 -.385E+01   -.195E-14 0.131E-14 0.432E+01   0.271E-19 -.271E-19 -.325E-01   -.408E-14 0.110E-13 -.434E+00
   0.167E-12 -.177E-12 0.385E+01   -.269E-14 0.184E-14 -.432E+01   0.108E-18 -.542E-19 0.325E-01   -.774E-14 0.109E-13 0.434E+00
   0.175E-12 0.176E-12 -.213E+02   -.272E-15 0.262E-14 0.219E+02   0.163E-18 -.271E-19 -.163E+01   0.345E-14 -.958E-14 -.240E-01
   0.195E-12 0.121E+01 -.306E-12   0.281E-13 -.118E+01 -.211E-14   -.434E-18 0.136E+00 -.542E-19   -.202E-13 -.107E+00 -.259E-13
   0.175E-12 0.182E-12 0.213E+02   -.282E-15 0.245E-14 -.219E+02   0.813E-19 -.542E-19 0.163E+01   0.177E-14 -.131E-13 0.240E-01
   0.581E-12 0.186E+02 -.183E-12   0.244E-13 -.188E+02 -.104E-16   0.000E+00 0.163E+01 0.000E+00   -.232E-13 -.475E+00 0.215E-13
   0.121E+01 0.300E-12 0.108E-11   -.118E+01 -.292E-13 -.215E-14   0.136E+00 0.000E+00 0.136E-19   -.107E+00 -.101E-13 -.237E-13
   0.186E+02 0.153E-12 -.669E-12   -.188E+02 -.149E-13 0.142E-13   0.163E+01 0.000E+00 -.678E-20   -.475E+00 -.877E-14 0.247E-13
   -.121E+01 0.213E-12 -.311E-12   0.118E+01 -.417E-13 -.220E-14   -.136E+00 0.000E+00 -.136E-19   0.107E+00 0.247E-13 -.251E-13
   -.331E-12 -.121E+01 0.156E-11   0.212E-13 0.118E+01 -.163E-13   -.434E-18 -.136E+00 0.542E-19   0.170E-13 0.107E+00 -.252E-13
   -.186E+02 0.338E-12 -.249E-12   0.188E+02 -.433E-13 0.142E-13   -.163E+01 0.000E+00 0.678E-20   0.475E+00 0.261E-13 0.238E-13
   0.139E-11 -.186E+02 -.776E-12   0.260E-13 0.188E+02 0.104E-16   0.000E+00 -.163E+01 0.000E+00   0.189E-13 0.475E+00 0.221E-13
   -.262E-13 -.981E-14 -.107E+02   -.277E-13 0.184E-13 0.112E+02   0.203E-19 -.203E-19 -.125E+00   0.584E-14 -.682E-14 -.301E+00
   -.280E-13 -.228E-14 0.107E+02   -.288E-13 0.166E-13 -.112E+02   -.474E-19 0.000E+00 0.125E+00   0.101E-13 -.509E-14 0.301E+00
   -.259E-12 -.354E-12 -.107E+02   -.247E-13 0.931E-14 0.112E+02   -.212E-19 0.127E-19 -.125E+00   -.254E-14 0.455E-14 -.301E+00
   -.130E-11 -.141E-11 0.107E+02   -.254E-13 0.110E-13 -.112E+02   0.212E-19 -.195E-19 0.125E+00   -.179E-15 0.948E-14 0.301E+00
   0.604E-12 0.635E-12 -.624E-12   0.159E-14 0.289E-13 0.568E-13   0.000E+00 0.000E+00 0.207E-24   0.174E-13 -.142E-13 0.247E-13
 -----------------------------------------------------------------------------------------------
   0.707E-12 0.871E-12 0.376E-11   0.616E-14 -.331E-13 -.391E-13   0.222E-15 0.222E-15 0.207E-24   0.318E-13 0.248E-13 -.629E-13


 POSITION                                       TOTAL-FORCE (eV/Angst)
 -----------------------------------------------------------------------------------
      1.95000     -1.95000      1.95000         0.000000     -0.000000      0.000000
      1.95000     -1.95000      5.85000         0.000000     -0.000000      0.000000
      1.95000      1.95000      1.95000         0.000000     -0.000000      0.000000
      1.95000     -1.95000      0.00000        -0.000000     -0.000000      0.001823
      1.95000     -1.95000      3.90000         0.000000     -0.000000     -0.001823
      1.95000      1.95000      0.00000         0.000000     -0.000000     -1.019079
      1.95000      0.00000      1.95000         0.000000      0.054962      0.000000
      1.95000      1.95000      3.90000         0.000000     -0.000000      1.019079
      1.95000      0.00000      5.85000         0.000000      1.009031      0.000000
      3.90000     -1.95000      1.95000         0.054962     -0.000000      0.000000
      3.90000     -1.95000      5.85000         1.009031     -0.000000     -0.000000
      3.90000      1.95000      1.95000        -0.054962     -0.000000      0.000000
      5.85000      0.00000      1.95000         0.000000     -0.054962      0.000000
      3.90000      1.95000      5.85000        -1.009031     -0.000000      0.000000
      5.85000      0.00000      5.85000         0.000000     -1.009031      0.000000
      0.00000      0.00000      0.00000        -0.000000      0.000000      0.018593
      0.00000      0.00000      3.90000        -0.000000      0.000000     -0.018593
      3.90000      0.00000      0.00000        -0.000000      0.000000      0.018593
      3.90000      0.00000      3.90000         0.000000     -0.000000     -0.018593
      1.95000      1.95000      5.85000         0.000000      0.000000      0.000000
 -----------------------------------------------------------------------------------
    total drift:                                0.000000      0.000000      0.000000


--------------------------------------------------------------------------------------------------------



  FREE ENERGIE OF THE ION-ELECTRON SYSTEM (eV)
  ---------------------------------------------------
  free  energy   TOTEN  =      -167.23123700 eV

  energy  without entropy=     -167.23123700  energy(sigma->0) =     -167.23123700



--------------------------------------------------------------------------------------------------------


    POTLOK:  cpu time    0.1611: real time    0.1611


--------------------------------------------------------------------------------------------------------


 writing wavefunctions
     LOOP+:  cpu time   43.6216: real time   43.6215
    4ORBIT:  cpu time    0.0000: real time    0.0000



 total charge     

# of ion       s       p       d       tot
------------------------------------------
    1        2.231   6.328   1.791  10.350
    2        2.226   6.318   1.805  10.349
    3        2.230   6.324   1.799  10.353
    4        1.586   3.486   0.000   5.072
    5        1.586   3.486   0.000   5.072
    6        1.585   3.470   0.000   5.055
    7        1.584   3.505   0.000   5.089
    8        1.585   3.470   0.000   5.055
    9        1.583   3.484   0.000   5.068
   10        1.587   3.470   0.000   5.057
   11        1.587   3.447   0.000   5.033
   12        1.587   3.470   0.000   5.057
   13        1.584   3.505   0.000   5.089
   14        1.587   3.447   0.000   5.033
   15        1.583   3.484   0.000   5.068
   16        1.997   5.753   0.206   7.956
   17        1.997   5.753   0.206   7.956
   18        1.997   5.754   0.205   7.955
   19        1.997   5.754   0.205   7.955
   20        2.283   6.337   2.862  11.481
--------------------------------------------------
tot         35.980  90.044   9.080 135.104

 BZINTS: Fermi energy:  5.672468;161.000000 electrons
         Band energy:***********;  BLOECHL correction: -0.043973

 total amount of memory used by VASP MPI-rank0   196030. kBytes
=======================================================================

   base      :      30000. kBytes
   nonlr-proj:       4127. kBytes
   fftplans  :      18638. kBytes
   grid      :      10474. kBytes
   one-center:        311. kBytes
   wavefun   :     132480. kBytes

  
  
 General timing and accounting informations for this job:
 ========================================================
  
                  Total CPU time used (sec):       47.550
                            User time (sec):       46.762
                          System time (sec):        0.788
                         Elapsed time (sec):       47.652
  
                   Maximum memory used (kb):      232056.
                   Average memory used (kb):           0.
  
                          Minor page faults:       179390
                          Major page faults:            7
                 Voluntary context switches:          703
