
             +---------------------------------------------------+
             |                                                   |
             |                   WANNIER90                       |
             |                                                   |
             +---------------------------------------------------+
             |                                                   |
             |        Welcome to the Maximally-Localized         |
             |        Generalized Wannier Functions code         |
             |            http://www.wannier.org                 |
             |                                                   |
             |  Wannier90 v2.x Authors:                          |
             |    Arash A. Mostofi  (Imperial College London)    |
             |    Giovanni Pizzi    (EPFL)                       |
             |    Ivo Souza         (Universidad del Pais Vasco) |
             |    Jonathan R. Yates (University of Oxford)       |
             |                                                   |
             |  Wannier90 Contributors:                          |
             |    Young-Su Lee       (KIST, S. Korea)            |
             |    Matthew Shelley    (Imperial College London)   |
             |    Nicolas Poilvert   (Penn State University)     |
             |    Raffaello Bianco   (Paris 6 and CNRS)          |
             |    Gabriele Sclauzero (ETH Zurich)                |
             |    David Strubbe (MIT, USA)                       |
             |    Rei Sakuma (Lund University, Sweden)           |
             |    Yusuke Nomura (U. Tokyo, Japan)                |
             |    Takashi Koretsune (Riken, Japan)               |
             |    Yoshiro Nohara (ASMS Co. Ltd., Japan)          |
             |    Ryotaro Arita (Riken, Japan)                   |
             |    Lorenzo Paulatto (UPMC Paris)                  |
             |    Florian Thole (ETH Zurich)                     |
             |    Pablo Garcia Fernandez (Unican, Spain)         |
             |    Dominik Gresch (ETH Zurich)                    |
             |    Samuel Ponce (University of Oxford)            |
             |    Marco Gibertini (EPFL)                         |
             |    Christian Stieger (ETHZ, CH)                   |
             |    Stepan Tsirkin (Universidad del Pais Vasco)    |
             |                                                   |
             |  Wannier77 Authors:                               |
             |    Nicola Marzari    (EPFL)                       |
             |    Ivo Souza         (Universidad del Pais Vasco) |
             |    David Vanderbilt  (Rutgers University)         |
             |                                                   |
             |  Please cite                                      |
             |                                                   |
             |  [ref] "An updated version of Wannier90:          |
             |        A Tool for Obtaining Maximally Localised   |
             |        Wannier Functions", A. A. Mostofi,         |
             |        J. R. Yates, G. Pizzi, Y. S. Lee,          |
             |        I. Souza, D. Vanderbilt and N. Marzari,    |
             |        Comput. Phys. Commun. 185, 2309 (2014)     |
             |        http://dx.doi.org/10.1016/j.cpc.2014.05.003|
             |                                                   |
             |  in any publications arising from the use of      |
             |  this code. For the method please cite            |
             |                                                   |
             |  [ref] "Maximally Localized Generalised Wannier   |
             |         Functions for Composite Energy Bands"     |
             |         N. Marzari and D. Vanderbilt              |
             |         Phys. Rev. B 56 12847 (1997)              |
             |                                                   |
             |  [ref] "Maximally Localized Wannier Functions     |
             |         for Entangled Energy Bands"               |
             |         I. Souza, N. Marzari and D. Vanderbilt    |
             |         Phys. Rev. B 65 035109 (2001)             |
             |                                                   |
             |                                                   |
             | Copyright (c) 1996-2017                           |
             |        Arash A. Mostofi, Jonathan R. Yates,       |
             |        Young-Su Lee, Giovanni Pizzi, Ivo Souza,   |
             |        David Vanderbilt and Nicola Marzari        |
             |                                                   |
             |        Release: 2.1.0   13th January 2017         |
             |                                                   |
             | This program is free software; you can            |
             | redistribute it and/or modify it under the terms  |
             | of the GNU General Public License as published by |
             | the Free Software Foundation; either version 2 of |
             | the License, or (at your option) any later version|
             |                                                   |
             | This program is distributed in the hope that it   |
             | will be useful, but WITHOUT ANY WARRANTY; without |
             | even the implied warranty of MERCHANTABILITY or   |
             | FITNESS FOR A PARTICULAR PURPOSE. See the GNU     |
             | General Public License for more details.          |
             |                                                   |
             | You should have received a copy of the GNU General|
             | Public License along with this program; if not,   |
             | write to the Free Software Foundation, Inc.,      |
             | 675 Mass Ave, Cambridge, MA 02139, USA.           |
             |                                                   |
             +---------------------------------------------------+
             |    Execution started on 26Apr2018 at 12:33:43     |
             +---------------------------------------------------+
 
 ******************************************************************************
 * -> Using CODATA 2006 constant values                                       *
 *    (http://physics.nist.gov/cuu/Constants/index.html)                      *
 * -> Using Bohr value from CODATA                                            *
 ******************************************************************************
 

                                    ------
                                    SYSTEM
                                    ------

                              Lattice Vectors (Ang)
                    a_1     3.900000  -3.900000   0.000000
                    a_2     3.900000   3.900000   0.000000
                    a_3     0.000000   0.000000   7.800000

                   Unit Cell Volume:     237.27600  (Ang^3)

                        Reciprocal-Space Vectors (Ang^-1)
                    b_1     0.805537  -0.805537   0.000000
                    b_2     0.805537   0.805537  -0.000000
                    b_3    -0.000000   0.000000   0.805537
  
 *----------------------------------------------------------------------------*
 |   Site       Fractional Coordinate          Cartesian Coordinate (Ang)     |
 +----------------------------------------------------------------------------+
 | Ti   1   0.50000   0.00000   0.25000   |    1.95000  -1.95000   1.95000    |
 | Ti   2   0.50000   0.00000   0.75000   |    1.95000  -1.95000   5.85000    |
 | Ti   3   0.00000   0.50000   0.25000   |    1.95000   1.95000   1.95000    |
 | O    1   0.50000   0.00000   0.00000   |    1.95000  -1.95000   0.00000    |
 | O    2   0.50000   0.00000   0.50000   |    1.95000  -1.95000   3.90000    |
 | O    3   0.00000   0.50000   0.00000   |    1.95000   1.95000   0.00000    |
 | O    4   0.25000   0.25000   0.25000   |    1.95000   0.00000   1.95000    |
 | O    5   0.00000   0.50000   0.50000   |    1.95000   1.95000   3.90000    |
 | O    6   0.25000   0.25000   0.75000   |    1.95000   0.00000   5.85000    |
 | O    7   0.75000   0.25000   0.25000   |    3.90000  -1.95000   1.95000    |
 | O    8   0.75000   0.25000   0.75000   |    3.90000  -1.95000   5.85000    |
 | O    9   0.25000   0.75000   0.25000   |    3.90000   1.95000   1.95000    |
 | O   10   0.75000   0.75000   0.25000   |    5.85000   0.00000   1.95000    |
 | O   11   0.25000   0.75000   0.75000   |    3.90000   1.95000   5.85000    |
 | O   12   0.75000   0.75000   0.75000   |    5.85000   0.00000   5.85000    |
 | Sr   1   0.00000   0.00000   0.00000   |    0.00000   0.00000   0.00000    |
 | Sr   2   0.00000   0.00000   0.50000   |    0.00000   0.00000   3.90000    |
 | Sr   3   0.50000   0.50000   0.00000   |    3.90000   0.00000   0.00000    |
 | Sr   4   0.50000   0.50000   0.50000   |    3.90000   0.00000   3.90000    |
 | V    1   0.00000   0.50000   0.75000   |    1.95000   1.95000   5.85000    |
 *----------------------------------------------------------------------------*
  
                                ------------
                                K-POINT GRID
                                ------------
  
             Grid size =  6 x  6 x  4      Total points =  144
  
  
 *---------------------------------- MAIN ------------------------------------*
 |  Number of Wannier Functions               :                56             |
 |  Number of input Bloch states              :               120             |
 |  Output verbosity (1=low, 5=high)          :                 1             |
 |  Timing Level (1=low, 5=high)              :                 1             |
 |  Optimisation (0=memory, 3=speed)          :                 3             |
 |  Length Unit                               :               Ang             |
 |  Post-processing setup (write *.nnkp)      :                 F             |
 |  Using Gamma-only branch of algorithms     :                 F             |
 *----------------------------------------------------------------------------*
 *------------------------------- WANNIERISE ---------------------------------*
 |  Total number of iterations                :               300             |
 |  Number of CG steps before reset           :                 5             |
 |  Trial step length for line search         :             2.000             |
 |  Convergence tolerence                     :         0.100E-09             |
 |  Convergence window                        :                -1             |
 |  Iterations between writing output         :                 1             |
 |  Iterations between backing up to disk     :               100             |
 |  Write r^2_nm to file                      :                 F             |
 |  Write xyz WF centres to file              :                 T             |
 |  Write on-site energies <0n|H|0n> to file  :                 F             |
 |  Use guiding centre to control phases      :                 T             |
 |  Use phases for initial projections        :                 F             |
 |  Iterations before starting guiding centres:                 0             |
 |  Iterations between using guiding centres  :                 1             |
 *----------------------------------------------------------------------------*
 *------------------------------- DISENTANGLE --------------------------------*
 |  Using band disentanglement                :                 T             |
 |  Total number of iterations                :               200             |
 |  Mixing ratio                              :             0.500             |
 |  Convergence tolerence                     :         1.000E-10             |
 |  Convergence window                        :                 3             |
 *----------------------------------------------------------------------------*
 *-------------------------------- PLOTTING ----------------------------------*
 |  Plotting interpolated bandstructure       :                 T             |
 |   Number of K-path sections                :                 6             |
 |   Divisions along first K-path section     :               410             |
 |   Output format                            :           gnuplot             |
 |   Output mode                              :               s-k             |
 *----------------------------------------------------------------------------*
 |   K-space path sections:                                                   |
 |    From:  X    0.500  0.000  0.000     To:  G    0.000  0.000  0.500       |
 |    From:  G    0.000  0.000  0.500     To:  Y    0.000  0.500  0.000       |
 |    From:  Y    0.000  0.500  0.000     To:  S    0.500  0.500  0.000       |
 |    From:  S    0.500  0.500  0.000     To:  X    0.500  0.000  0.000       |
 |    From:  X    0.500  0.000  0.000     To:  R    0.500  0.500  0.500       |
 |    From:  R    0.500  0.500  0.500     To:  G    0.000  0.000  0.000       |
 *----------------------------------------------------------------------------*
 |  Plotting Hamiltonian in WF basis          :                 T             |
 *----------------------------------------------------------------------------*
 Time to read parameters        0.197 (sec)

 *---------------------------------- K-MESH ----------------------------------*
 +----------------------------------------------------------------------------+
 |                    Distance to Nearest-Neighbour Shells                    |
 |                    ------------------------------------                    |
 |          Shell             Distance (Ang^-1)          Multiplicity         |
 |          -----             -----------------          ------------         |
 |             1                   0.189867                      4            |
 |             2                   0.201384                      2            |
 |             3                   0.268512                      4            |
 |             4                   0.276776                      8            |
 |             5                   0.335640                      8            |
 |             6                   0.379734                      4            |
 |             7                   0.402768                      2            |
 |             8                   0.424555                      8            |
 |             9                   0.429829                      8            |
 |            10                   0.445277                      8            |
 |            11                   0.469896                     16            |
 |            12                   0.484067                      8            |
 |            13                   0.537024                      4            |
 |            14                   0.553552                      8            |
 |            15                   0.569600                      4            |
 |            16                   0.573542                      8            |
 |            17                   0.585209                     16            |
 |            18                   0.600412                      8            |
 |            19                   0.604152                     10            |
 |            20                   0.633285                     24            |
 |            21                   0.661135                      8            |
 |            22                   0.671280                      8            |
 |            23                   0.684574                      8            |
 |            24                   0.697615                      8            |
 +----------------------------------------------------------------------------+
 | The b-vectors are chosen automatically                                     |
 | The following shells are used:   1,  2                                     |
 +----------------------------------------------------------------------------+
 |                        Shell   # Nearest-Neighbours                        |
 |                        -----   --------------------                        |
 |                          1               4                                 |
 |                          2               2                                 |
 +----------------------------------------------------------------------------+
 | Completeness relation is fully satisfied [Eq. (B1), PRB 56, 12847 (1997)]  |
 +----------------------------------------------------------------------------+
 |                  b_k Vectors (Ang^-1) and Weights (Ang^2)                  |
 |                  ----------------------------------------                  |
 |            No.         b_k(x)      b_k(y)      b_k(z)        w_b           |
 |            ---        --------------------------------     --------        |
 |             1         0.134256   -0.134256    0.000000    13.869857        |
 |             2        -0.134256    0.134256    0.000000    13.869857        |
 |             3         0.134256    0.134256    0.000000    13.869857        |
 |             4        -0.134256   -0.134256    0.000000    13.869857        |
 |             5         0.000000    0.000000    0.201384    12.328762        |
 |             6         0.000000    0.000000   -0.201384    12.328762        |
 +----------------------------------------------------------------------------+
 |                           b_k Directions (Ang^-1)                          |
 |                           -----------------------                          |
 |            No.           x           y           z                         |
 |            ---        --------------------------------                     |
 |             1         0.134256   -0.134256    0.000000                     |
 |             2         0.134256    0.134256    0.000000                     |
 |             3         0.000000    0.000000    0.201384                     |
 +----------------------------------------------------------------------------+
  
 *============================================================================*
 |                              MEMORY ESTIMATE                               |
 |         Maximum RAM allocated during each phase of the calculation         |
 *============================================================================*
 |                        Disentanglement          290.63 Mb                  |
 |                            Wannierise:          127.32 Mb                  |
 |                          plot_wannier:          127.32 Mb                  |
 *----------------------------------------------------------------------------*
  
 Starting a new Wannier90 calculation ...

 Time to get kmesh              0.628 (sec)

 Reading overlaps from wannier90.mmn    : File generated by VASP: unknown system

 Reading projections from wannier90.amn : File generated by VASP: unknown system

 Time to read overlaps         13.100 (sec)

 *------------------------------- DISENTANGLE --------------------------------*
 +----------------------------------------------------------------------------+
 |                              Energy  Windows                               |
 |                              ---------------                               |
 |                   Outer:   -4.35090  to   14.64910  (eV)                   |
 |                   Inner:   -0.35090  to    8.94910  (eV)                   |
 +----------------------------------------------------------------------------+
   Number of target bands to extract:   56

                   Unitarised projection of Wannier functions                  
                   ------------------------------------------                  
   A_mn = <psi_m|g_n> --> S = A.A^+ --> U = S^-1/2.A
   In dis_project... done
   Using an inner window (linner = T)
   In dis_proj_froz... done

                   Extraction of optimally-connected subspace                  
                   ------------------------------------------                  
 +---------------------------------------------------------------------+<-- DIS
 |  Iter     Omega_I(i-1)      Omega_I(i)      Delta (frac.)    Time   |<-- DIS
 +---------------------------------------------------------------------+<-- DIS
       1      56.80775340      54.07426065       5.055E-02     22.64    <-- DIS
       2      54.85433066      53.18676508       3.135E-02     23.99    <-- DIS
       3      53.86830493      52.51712205       2.573E-02     25.30    <-- DIS
       4      53.07545141      51.98902045       2.090E-02     26.61    <-- DIS
       5      52.44028645      51.56307993       1.701E-02     27.92    <-- DIS
       6      51.92829777      51.21383714       1.395E-02     29.23    <-- DIS
       7      51.51160183      50.92371041       1.154E-02     30.54    <-- DIS
       8      51.16885145      50.68007391       9.644E-03     31.86    <-- DIS
       9      50.88397464      50.47359632       8.131E-03     33.16    <-- DIS
      10      50.64488787      50.29722478       6.912E-03     34.47    <-- DIS
      11      50.44245216      50.14553087       5.921E-03     35.78    <-- DIS
      12      50.26968927      50.01427249       5.107E-03     37.09    <-- DIS
      13      50.12121111      49.90009080       4.431E-03     38.39    <-- DIS
      14      49.99280866      49.80029547       3.866E-03     39.70    <-- DIS
      15      49.88115592      49.71270906       3.388E-03     41.01    <-- DIS
      16      49.78359549      49.63555250       2.983E-03     42.32    <-- DIS
      17      49.69798196      49.56735954       2.635E-03     43.62    <-- DIS
      18      49.62256632      49.50691199       2.336E-03     44.93    <-- DIS
      19      49.55590975      49.45319018       2.077E-03     46.24    <-- DIS
      20      49.49681871      49.40533473       1.852E-03     47.55    <-- DIS
      21      49.44429535      49.36261669       1.655E-03     48.86    <-- DIS
      22      49.39749947      49.32441405       1.482E-03     50.17    <-- DIS
      23      49.35571888      49.29019316       1.329E-03     51.48    <-- DIS
      24      49.31834623      49.25949379       1.195E-03     52.79    <-- DIS
      25      49.28486063      49.23191726       1.075E-03     54.19    <-- DIS
      26      49.25481302      49.20711664       9.693E-04     55.62    <-- DIS
      27      49.22781443      49.18478888       8.748E-04     56.93    <-- DIS
      28      49.20352646      49.16466828       7.904E-04     58.24    <-- DIS
      29      49.18165351      49.14652116       7.148E-04     59.55    <-- DIS
      30      49.16193645      49.13014134       6.472E-04     60.86    <-- DIS
      31      49.14414735      49.11534642       5.864E-04     62.17    <-- DIS
      32      49.12808511      49.10197464       5.318E-04     63.48    <-- DIS
      33      49.11357181      49.08988222       4.826E-04     64.79    <-- DIS
      34      49.10044965      49.07894109       4.382E-04     66.09    <-- DIS
      35      49.08857837      49.06903698       3.982E-04     67.40    <-- DIS
      36      49.07783300      49.06006775       3.621E-04     68.71    <-- DIS
      37      49.06810205      49.05194197       3.294E-04     70.02    <-- DIS
      38      49.05928581      49.04457766       2.999E-04     71.33    <-- DIS
      39      49.05129506      49.03790127       2.731E-04     72.64    <-- DIS
      40      49.04404976      49.03184668       2.489E-04     73.95    <-- DIS
      41      49.03747808      49.02635446       2.269E-04     75.26    <-- DIS
      42      49.03151548      49.02137106       2.069E-04     76.57    <-- DIS
      43      49.02610389      49.01684826       1.888E-04     77.88    <-- DIS
      44      49.02119100      49.01274256       1.724E-04     79.19    <-- DIS
      45      49.01672969      49.00901472       1.574E-04     80.50    <-- DIS
      46      49.01267746      49.00562930       1.438E-04     81.81    <-- DIS
      47      49.00899594      49.00255428       1.315E-04     83.13    <-- DIS
      48      49.00565048      48.99976072       1.202E-04     84.44    <-- DIS
      49      49.00260978      48.99722245       1.100E-04     85.75    <-- DIS
      50      48.99984552      48.99491579       1.006E-04     87.06    <-- DIS
      51      48.99733209      48.99281929       9.211E-05     88.37    <-- DIS
      52      48.99504633      48.99091354       8.436E-05     89.74    <-- DIS
      53      48.99296724      48.98918097       7.729E-05     91.20    <-- DIS
      54      48.99107582      48.98760564       7.084E-05     92.67    <-- DIS
      55      48.98935484      48.98617311       6.495E-05     94.14    <-- DIS
      56      48.98778872      48.98487029       5.958E-05     95.61    <-- DIS
      57      48.98636328      48.98368530       5.467E-05     97.08    <-- DIS
      58      48.98506570      48.98260737       5.019E-05     98.55    <-- DIS
      59      48.98388433      48.98162674       4.609E-05    100.02    <-- DIS
      60      48.98280863      48.98073453       4.235E-05    101.48    <-- DIS
      61      48.98182898      48.97992270       3.892E-05    102.95    <-- DIS
      62      48.98093670      48.97918393       3.579E-05    104.32    <-- DIS
      63      48.98012388      48.97851160       3.292E-05    105.62    <-- DIS
      64      48.97938334      48.97789967       3.029E-05    106.93    <-- DIS
      65      48.97870856      48.97734268       2.789E-05    108.24    <-- DIS
      66      48.97809363      48.97683564       2.569E-05    109.55    <-- DIS
      67      48.97753315      48.97637405       2.367E-05    110.85    <-- DIS
      68      48.97702224      48.97595380       2.182E-05    112.16    <-- DIS
      69      48.97655646      48.97557116       2.012E-05    113.47    <-- DIS
      70      48.97613176      48.97522274       1.856E-05    114.77    <-- DIS
      71      48.97574446      48.97490545       1.713E-05    116.08    <-- DIS
      72      48.97539122      48.97461649       1.582E-05    117.39    <-- DIS
      73      48.97506901      48.97435332       1.461E-05    118.69    <-- DIS
      74      48.97477506      48.97411362       1.351E-05    120.00    <-- DIS
      75      48.97450685      48.97389527       1.249E-05    121.30    <-- DIS
      76      48.97426210      48.97369638       1.155E-05    122.61    <-- DIS
      77      48.97403873      48.97351518       1.069E-05    123.92    <-- DIS
      78      48.97383483      48.97335010       9.898E-06    125.23    <-- DIS
      79      48.97364868      48.97319969       9.168E-06    126.58    <-- DIS
      80      48.97347872      48.97306264       8.496E-06    127.89    <-- DIS
      81      48.97332351      48.97293776       7.877E-06    129.20    <-- DIS
      82      48.97318175      48.97282396       7.306E-06    130.50    <-- DIS
      83      48.97305226      48.97272025       6.779E-06    131.81    <-- DIS
      84      48.97293396      48.97262573       6.294E-06    133.12    <-- DIS
      85      48.97282586      48.97253959       5.846E-06    134.42    <-- DIS
      86      48.97272707      48.97246106       5.432E-06    135.73    <-- DIS
      87      48.97263677      48.97238949       5.049E-06    137.04    <-- DIS
      88      48.97255422      48.97232424       4.696E-06    138.35    <-- DIS
      89      48.97247874      48.97226475       4.369E-06    139.65    <-- DIS
      90      48.97240971      48.97221052       4.067E-06    140.96    <-- DIS
      91      48.97234657      48.97216108       3.788E-06    142.27    <-- DIS
      92      48.97228882      48.97211600       3.529E-06    143.58    <-- DIS
      93      48.97223597      48.97207489       3.289E-06    144.88    <-- DIS
      94      48.97218761      48.97203741       3.067E-06    146.19    <-- DIS
      95      48.97214334      48.97200322       2.861E-06    147.50    <-- DIS
      96      48.97210282      48.97197205       2.670E-06    148.80    <-- DIS
      97      48.97206571      48.97194362       2.493E-06    150.11    <-- DIS
      98      48.97203173      48.97191769       2.329E-06    151.42    <-- DIS
      99      48.97200059      48.97189403       2.176E-06    152.73    <-- DIS
     100      48.97197207      48.97187246       2.034E-06    154.03    <-- DIS
     101      48.97194593      48.97185278       1.902E-06    155.37    <-- DIS
     102      48.97192197      48.97183483       1.780E-06    156.86    <-- DIS
     103      48.97190001      48.97181845       1.665E-06    158.34    <-- DIS
     104      48.97187987      48.97180350       1.559E-06    159.83    <-- DIS
     105      48.97186139      48.97178987       1.460E-06    161.31    <-- DIS
     106      48.97184444      48.97177743       1.368E-06    162.80    <-- DIS
     107      48.97182889      48.97176608       1.283E-06    164.28    <-- DIS
     108      48.97181461      48.97175572       1.203E-06    165.77    <-- DIS
     109      48.97180150      48.97174627       1.128E-06    167.25    <-- DIS
     110      48.97178947      48.97173764       1.058E-06    168.74    <-- DIS
     111      48.97177841      48.97172977       9.933E-07    170.22    <-- DIS
     112      48.97176825      48.97172258       9.326E-07    171.71    <-- DIS
     113      48.97175891      48.97171602       8.759E-07    173.19    <-- DIS
     114      48.97175033      48.97171003       8.229E-07    174.68    <-- DIS
     115      48.97174244      48.97170457       7.733E-07    176.11    <-- DIS
     116      48.97173518      48.97169958       7.269E-07    177.41    <-- DIS
     117      48.97172850      48.97169503       6.836E-07    178.72    <-- DIS
     118      48.97172235      48.97169087       6.429E-07    180.03    <-- DIS
     119      48.97171670      48.97168707       6.049E-07    181.34    <-- DIS
     120      48.97171149      48.97168361       5.693E-07    182.64    <-- DIS
     121      48.97170669      48.97168044       5.359E-07    183.95    <-- DIS
     122      48.97170226      48.97167755       5.046E-07    185.28    <-- DIS
     123      48.97169819      48.97167491       4.753E-07    186.59    <-- DIS
     124      48.97169443      48.97167250       4.477E-07    187.89    <-- DIS
     125      48.97169096      48.97167030       4.219E-07    189.20    <-- DIS
     126      48.97168776      48.97166829       3.976E-07    190.51    <-- DIS
     127      48.97168481      48.97166646       3.748E-07    191.89    <-- DIS
     128      48.97168209      48.97166478       3.534E-07    193.38    <-- DIS
     129      48.97167957      48.97166325       3.333E-07    194.86    <-- DIS
     130      48.97167725      48.97166185       3.144E-07    196.34    <-- DIS
     131      48.97167510      48.97166057       2.967E-07    197.83    <-- DIS
     132      48.97167311      48.97165940       2.799E-07    199.32    <-- DIS
     133      48.97167127      48.97165833       2.642E-07    200.70    <-- DIS
     134      48.97166957      48.97165736       2.494E-07    202.00    <-- DIS
     135      48.97166800      48.97165647       2.355E-07    203.31    <-- DIS
     136      48.97166655      48.97165566       2.224E-07    204.62    <-- DIS
     137      48.97166520      48.97165491       2.100E-07    205.93    <-- DIS
     138      48.97166395      48.97165423       1.984E-07    207.24    <-- DIS
     139      48.97166279      48.97165361       1.874E-07    208.54    <-- DIS
     140      48.97166172      48.97165304       1.771E-07    209.85    <-- DIS
     141      48.97166072      48.97165252       1.674E-07    211.16    <-- DIS
     142      48.97165980      48.97165205       1.582E-07    212.47    <-- DIS
     143      48.97165894      48.97165162       1.495E-07    213.78    <-- DIS
     144      48.97165814      48.97165122       1.413E-07    215.08    <-- DIS
     145      48.97165740      48.97165086       1.336E-07    216.39    <-- DIS
     146      48.97165672      48.97165053       1.264E-07    217.70    <-- DIS
     147      48.97165608      48.97165023       1.195E-07    219.01    <-- DIS
     148      48.97165548      48.97164995       1.130E-07    220.32    <-- DIS
     149      48.97165493      48.97164970       1.069E-07    221.63    <-- DIS
     150      48.97165442      48.97164947       1.011E-07    222.94    <-- DIS
     151      48.97165394      48.97164925       9.567E-08    224.25    <-- DIS
     152      48.97165349      48.97164906       9.051E-08    225.55    <-- DIS
     153      48.97165308      48.97164888       8.564E-08    226.86    <-- DIS
     154      48.97165269      48.97164872       8.104E-08    228.29    <-- DIS
     155      48.97165233      48.97164857       7.669E-08    229.78    <-- DIS
     156      48.97165199      48.97164844       7.258E-08    231.26    <-- DIS
     157      48.97165168      48.97164831       6.869E-08    232.75    <-- DIS
     158      48.97165139      48.97164820       6.502E-08    234.24    <-- DIS
     159      48.97165111      48.97164810       6.154E-08    235.72    <-- DIS
     160      48.97165086      48.97164800       5.826E-08    237.21    <-- DIS
     161      48.97165062      48.97164792       5.515E-08    238.59    <-- DIS
     162      48.97165039      48.97164784       5.221E-08    239.90    <-- DIS
     163      48.97165019      48.97164777       4.943E-08    241.20    <-- DIS
     164      48.97164999      48.97164770       4.680E-08    242.61    <-- DIS
     165      48.97164981      48.97164764       4.431E-08    243.96    <-- DIS
     166      48.97164964      48.97164758       4.195E-08    245.27    <-- DIS
     167      48.97164948      48.97164753       3.972E-08    246.58    <-- DIS
     168      48.97164933      48.97164749       3.761E-08    247.89    <-- DIS
     169      48.97164919      48.97164744       3.562E-08    249.19    <-- DIS
     170      48.97164906      48.97164740       3.373E-08    250.50    <-- DIS
     171      48.97164893      48.97164737       3.194E-08    251.81    <-- DIS
     172      48.97164882      48.97164734       3.024E-08    253.12    <-- DIS
     173      48.97164871      48.97164731       2.864E-08    254.42    <-- DIS
     174      48.97164861      48.97164728       2.712E-08    255.73    <-- DIS
     175      48.97164851      48.97164725       2.568E-08    257.04    <-- DIS
     176      48.97164842      48.97164723       2.432E-08    258.35    <-- DIS
     177      48.97164834      48.97164721       2.303E-08    259.66    <-- DIS
     178      48.97164826      48.97164719       2.181E-08    260.97    <-- DIS
     179      48.97164818      48.97164717       2.065E-08    262.28    <-- DIS
     180      48.97164811      48.97164716       1.956E-08    263.59    <-- DIS
     181      48.97164805      48.97164714       1.852E-08    264.90    <-- DIS
     182      48.97164799      48.97164713       1.754E-08    266.21    <-- DIS
     183      48.97164793      48.97164712       1.661E-08    267.52    <-- DIS
     184      48.97164787      48.97164710       1.573E-08    268.82    <-- DIS
     185      48.97164782      48.97164709       1.489E-08    270.23    <-- DIS
     186      48.97164778      48.97164708       1.410E-08    271.66    <-- DIS
     187      48.97164773      48.97164708       1.335E-08    272.97    <-- DIS
     188      48.97164769      48.97164707       1.264E-08    274.27    <-- DIS
     189      48.97164765      48.97164706       1.197E-08    275.58    <-- DIS
     190      48.97164761      48.97164705       1.133E-08    276.89    <-- DIS
     191      48.97164757      48.97164705       1.073E-08    278.20    <-- DIS
     192      48.97164754      48.97164704       1.015E-08    279.51    <-- DIS
     193      48.97164751      48.97164704       9.613E-09    280.82    <-- DIS
     194      48.97164748      48.97164703       9.099E-09    282.12    <-- DIS
     195      48.97164745      48.97164703       8.613E-09    283.43    <-- DIS
     196      48.97164742      48.97164702       8.152E-09    284.74    <-- DIS
     197      48.97164740      48.97164702       7.716E-09    286.05    <-- DIS
     198      48.97164738      48.97164702       7.302E-09    287.36    <-- DIS
     199      48.97164735      48.97164701       6.910E-09    288.67    <-- DIS
     200      48.97164733      48.97164701       6.539E-09    289.98    <-- DIS

     <<< Warning: Maximum number of disentanglement iterations reached >>>
          <<< Disentanglement convergence criteria not satisfied >>>

        Final Omega_I    48.97164701 (Ang^2)

 +----------------------------------------------------------------------------+

 Time to disentangle bands    280.821 (sec)

 Writing checkpoint file wannier90.chk... done


 *------------------------------- WANNIERISE ---------------------------------*
 +--------------------------------------------------------------------+<-- CONV
 | Iter  Delta Spread     RMS Gradient      Spread (Ang^2)      Time  |<-- CONV
 +--------------------------------------------------------------------+<-- CONV

 ------------------------------------------------------------------------------
 Initial State
  WF centre and spread    1  (  1.950000, -1.950001, -0.002347 )     0.77759003
  WF centre and spread    2  (  1.950000, -1.950000, -0.000273 )     1.08726699
  WF centre and spread    3  (  1.950000, -1.950000, -0.000273 )     1.08726519
  WF centre and spread    4  (  1.950000, -1.949999,  3.902347 )     0.77759130
  WF centre and spread    5  (  1.950000, -1.950000,  3.900273 )     1.08726534
  WF centre and spread    6  (  1.950000, -1.950000,  3.900273 )     1.08726734
  WF centre and spread    7  (  1.950000,  1.950001, -0.007912 )     0.76567500
  WF centre and spread    8  (  1.950000,  1.950000, -0.002633 )     1.06197945
  WF centre and spread    9  (  1.950000,  1.950000, -0.002633 )     1.06200369
  WF centre and spread   10  (  1.950002,  0.000344,  1.950000 )     1.09297852
  WF centre and spread   11  (  1.950000,  0.000115,  1.950000 )     1.08998979
  WF centre and spread   12  (  1.950006,  0.001115,  1.950005 )     0.77190500
  WF centre and spread   13  (  1.950000,  1.949999,  3.907911 )     0.76567364
  WF centre and spread   14  (  1.950000,  1.950000,  3.902633 )     1.06200353
  WF centre and spread   15  (  1.950000,  1.950000,  3.902633 )     1.06197974
  WF centre and spread   16  (  1.950002,  0.002674,  5.850000 )     1.06833677
  WF centre and spread   17  (  1.949999,  0.002245,  5.850000 )     1.06673862
  WF centre and spread   18  (  1.949998,  0.007109,  5.849998 )     0.77046906
  WF centre and spread   19  (  3.900344, -1.950002,  1.950000 )     1.09297851
  WF centre and spread   20  (  3.901115, -1.950006,  1.949993 )     0.77190532
  WF centre and spread   21  (  3.900115, -1.950000,  1.950000 )     1.08998985
  WF centre and spread   22  (  3.902674, -1.950002,  5.850000 )     1.06833676
  WF centre and spread   23  (  3.907109, -1.949998,  5.850004 )     0.77046924
  WF centre and spread   24  (  3.902245, -1.949999,  5.850000 )     1.06673862
  WF centre and spread   25  (  3.899656,  1.950002,  1.950000 )     1.09297853
  WF centre and spread   26  (  3.898885,  1.950006,  1.949998 )     0.77190628
  WF centre and spread   27  (  3.899885,  1.950000,  1.950000 )     1.08998991
  WF centre and spread   28  (  5.849998, -0.000344,  1.950000 )     1.09297852
  WF centre and spread   29  (  5.850000, -0.000115,  1.950000 )     1.08998988
  WF centre and spread   30  (  5.849995, -0.001115,  1.950004 )     0.77190597
  WF centre and spread   31  (  3.897326,  1.950002,  5.850000 )     1.06833680
  WF centre and spread   32  (  3.892891,  1.949998,  5.850003 )     0.77046972
  WF centre and spread   33  (  3.897755,  1.949999,  5.849999 )     1.06673871
  WF centre and spread   34  (  5.849998, -0.002674,  5.850000 )     1.06833680
  WF centre and spread   35  (  5.850001, -0.002245,  5.850000 )     1.06673870
  WF centre and spread   36  (  5.850002, -0.007109,  5.849995 )     0.77046959
  WF centre and spread   37  (  1.950000, -1.950000,  1.950000 )     0.70174435
  WF centre and spread   38  (  1.950000, -1.950000,  1.950000 )     0.99485008
  WF centre and spread   39  (  1.950000, -1.950000,  1.950000 )     0.99485008
  WF centre and spread   40  (  1.950000, -1.950000,  1.949999 )     0.71450478
  WF centre and spread   41  (  1.950000, -1.950000,  1.950000 )     0.98655044
  WF centre and spread   42  (  1.950000, -1.950000,  5.850000 )     0.71098460
  WF centre and spread   43  (  1.950000, -1.950000,  5.850000 )     1.00133337
  WF centre and spread   44  (  1.950000, -1.950000,  5.850000 )     1.00133335
  WF centre and spread   45  (  1.950000, -1.950000,  5.850000 )     0.70723025
  WF centre and spread   46  (  1.950000, -1.950000,  5.850000 )     0.99695322
  WF centre and spread   47  (  1.950000,  1.950000,  1.950000 )     0.70749045
  WF centre and spread   48  (  1.950000,  1.950000,  1.950000 )     0.98901536
  WF centre and spread   49  (  1.950000,  1.950000,  1.950000 )     0.98901535
  WF centre and spread   50  (  1.950000,  1.950000,  1.950001 )     0.71494342
  WF centre and spread   51  (  1.950000,  1.950000,  1.950000 )     0.98524584
  WF centre and spread   52  (  1.950000,  1.950000,  5.850000 )     0.63932116
  WF centre and spread   53  (  1.950000,  1.950000,  5.850000 )     0.75887486
  WF centre and spread   54  (  1.950000,  1.950000,  5.850000 )     0.75887485
  WF centre and spread   55  (  1.950000,  1.950000,  5.850000 )     0.63696372
  WF centre and spread   56  (  1.950000,  1.950000,  5.850000 )     0.76011805
  Sum of centres and spreads (156.000001,  0.000001,194.999999 )    51.87543429

      0     0.519E+02     0.0000000000       51.8754342837     295.25  <-- CONV
        O_D=      0.0003881 O_OD=      2.9033992 O_TOT=     51.8754343 <-- SPRD
 ------------------------------------------------------------------------------
 Cycle:      1
  WF centre and spread    1  (  1.950000, -1.950001, -0.002340 )     0.76712357
  WF centre and spread    2  (  1.950000, -1.950000, -0.000348 )     1.06725656
  WF centre and spread    3  (  1.950000, -1.950000, -0.000348 )     1.06725482
  WF centre and spread    4  (  1.950000, -1.949999,  3.902340 )     0.76712490
  WF centre and spread    5  (  1.950000, -1.950000,  3.900348 )     1.06725503
  WF centre and spread    6  (  1.950000, -1.950000,  3.900348 )     1.06725684
  WF centre and spread    7  (  1.950000,  1.950001, -0.008037 )     0.75762917
  WF centre and spread    8  (  1.950000,  1.950000, -0.002525 )     1.04267259
  WF centre and spread    9  (  1.950000,  1.950000, -0.002525 )     1.04268886
  WF centre and spread   10  (  1.950002,  0.000419,  1.950000 )     1.07275707
  WF centre and spread   11  (  1.950000,  0.000185,  1.950000 )     1.07073048
  WF centre and spread   12  (  1.950006,  0.001099,  1.950005 )     0.76172122
  WF centre and spread   13  (  1.950000,  1.949999,  3.908036 )     0.75762822
  WF centre and spread   14  (  1.950000,  1.950000,  3.902525 )     1.04268883
  WF centre and spread   15  (  1.950000,  1.950000,  3.902525 )     1.04267277
  WF centre and spread   16  (  1.950002,  0.002563,  5.850000 )     1.04958808
  WF centre and spread   17  (  1.949999,  0.002174,  5.850000 )     1.05020566
  WF centre and spread   18  (  1.949999,  0.007176,  5.849998 )     0.76360781
  WF centre and spread   19  (  3.900419, -1.950002,  1.950000 )     1.07275706
  WF centre and spread   20  (  3.901099, -1.950006,  1.949993 )     0.76172151
  WF centre and spread   21  (  3.900185, -1.950000,  1.950000 )     1.07073055
  WF centre and spread   22  (  3.902563, -1.950002,  5.850000 )     1.04958809
  WF centre and spread   23  (  3.907176, -1.949998,  5.850004 )     0.76360796
  WF centre and spread   24  (  3.902174, -1.949999,  5.850000 )     1.05020563
  WF centre and spread   25  (  3.899581,  1.950002,  1.950000 )     1.07275707
  WF centre and spread   26  (  3.898901,  1.950006,  1.949998 )     0.76172222
  WF centre and spread   27  (  3.899815,  1.950000,  1.950000 )     1.07073057
  WF centre and spread   28  (  5.849998, -0.000419,  1.950000 )     1.07275707
  WF centre and spread   29  (  5.850000, -0.000185,  1.950000 )     1.07073057
  WF centre and spread   30  (  5.849995, -0.001099,  1.950004 )     0.76172199
  WF centre and spread   31  (  3.897437,  1.950002,  5.850000 )     1.04958810
  WF centre and spread   32  (  3.892824,  1.949998,  5.850003 )     0.76360850
  WF centre and spread   33  (  3.897826,  1.949999,  5.849999 )     1.05020577
  WF centre and spread   34  (  5.849998, -0.002563,  5.850000 )     1.04958811
  WF centre and spread   35  (  5.850001, -0.002174,  5.850000 )     1.05020574
  WF centre and spread   36  (  5.850002, -0.007176,  5.849995 )     0.76360832
  WF centre and spread   37  (  1.950000, -1.950000,  1.950000 )     0.68862794
  WF centre and spread   38  (  1.950000, -1.950000,  1.950000 )     0.96802202
  WF centre and spread   39  (  1.950000, -1.950000,  1.950000 )     0.96802202
  WF centre and spread   40  (  1.950000, -1.950000,  1.949999 )     0.69910582
  WF centre and spread   41  (  1.950000, -1.950000,  1.950000 )     0.96185360
  WF centre and spread   42  (  1.950000, -1.950000,  5.850000 )     0.69400816
  WF centre and spread   43  (  1.950000, -1.950000,  5.850000 )     0.97441615
  WF centre and spread   44  (  1.950000, -1.950000,  5.850000 )     0.97441614
  WF centre and spread   45  (  1.950000, -1.950000,  5.850000 )     0.69363815
  WF centre and spread   46  (  1.950000, -1.950000,  5.850000 )     0.97206447
  WF centre and spread   47  (  1.950000,  1.950000,  1.950000 )     0.69085568
  WF centre and spread   48  (  1.950000,  1.950000,  1.950000 )     0.96265674
  WF centre and spread   49  (  1.950000,  1.950000,  1.950000 )     0.96265673
  WF centre and spread   50  (  1.950000,  1.950000,  1.950001 )     0.69786676
  WF centre and spread   51  (  1.950000,  1.950000,  1.950000 )     0.96060513
  WF centre and spread   52  (  1.950000,  1.950000,  5.850000 )     0.62578784
  WF centre and spread   53  (  1.950000,  1.950000,  5.850000 )     0.73856055
  WF centre and spread   54  (  1.950000,  1.950000,  5.850000 )     0.73856055
  WF centre and spread   55  (  1.950000,  1.950000,  5.850000 )     0.62336543
  WF centre and spread   56  (  1.950000,  1.950000,  5.850000 )     0.74118112
  Sum of centres and spreads (156.000001,  0.000001,194.999999 )    50.89996826

      1    -0.975E+00     0.9584248760       50.8999682524     299.23  <-- CONV
        O_D=      0.0005871 O_OD=      1.9277341 O_TOT=     50.8999683 <-- SPRD
 Delta: O_D=  0.1990045E-03 O_OD= -0.9756650E+00 O_TOT= -0.9754660E+00 <-- DLTA
 ------------------------------------------------------------------------------
 Cycle:      2
  WF centre and spread    1  (  1.950000, -1.950001, -0.002305 )     0.76368835
  WF centre and spread    2  (  1.950000, -1.950000, -0.000346 )     1.06101163
  WF centre and spread    3  (  1.950000, -1.950000, -0.000346 )     1.06100977
  WF centre and spread    4  (  1.950000, -1.949999,  3.902305 )     0.76368904
  WF centre and spread    5  (  1.950000, -1.950000,  3.900346 )     1.06100996
  WF centre and spread    6  (  1.950000, -1.950000,  3.900346 )     1.06101190
  WF centre and spread    7  (  1.950000,  1.950001, -0.007975 )     0.75424248
  WF centre and spread    8  (  1.950000,  1.950000, -0.002477 )     1.03716319
  WF centre and spread    9  (  1.950000,  1.950000, -0.002477 )     1.03717922
  WF centre and spread   10  (  1.950001,  0.000413,  1.950000 )     1.06626404
  WF centre and spread   11  (  1.950000,  0.000199,  1.950000 )     1.06537102
  WF centre and spread   12  (  1.950006,  0.001077,  1.950005 )     0.75826385
  WF centre and spread   13  (  1.950000,  1.949999,  3.907974 )     0.75424271
  WF centre and spread   14  (  1.950000,  1.950000,  3.902477 )     1.03717854
  WF centre and spread   15  (  1.950000,  1.950000,  3.902477 )     1.03716259
  WF centre and spread   16  (  1.950002,  0.002510,  5.850000 )     1.04444926
  WF centre and spread   17  (  1.949999,  0.002138,  5.850000 )     1.04485137
  WF centre and spread   18  (  1.949999,  0.007081,  5.849998 )     0.75956358
  WF centre and spread   19  (  3.900413, -1.950001,  1.950000 )     1.06626405
  WF centre and spread   20  (  3.901077, -1.950006,  1.949993 )     0.75826412
  WF centre and spread   21  (  3.900199, -1.950000,  1.950000 )     1.06537117
  WF centre and spread   22  (  3.902510, -1.950002,  5.850000 )     1.04444926
  WF centre and spread   23  (  3.907081, -1.949998,  5.850004 )     0.75956376
  WF centre and spread   24  (  3.902138, -1.949999,  5.850000 )     1.04485128
  WF centre and spread   25  (  3.899587,  1.950001,  1.950000 )     1.06626404
  WF centre and spread   26  (  3.898923,  1.950006,  1.949998 )     0.75826503
  WF centre and spread   27  (  3.899801,  1.950000,  1.950000 )     1.06537117
  WF centre and spread   28  (  5.849999, -0.000413,  1.950000 )     1.06626405
  WF centre and spread   29  (  5.850000, -0.000199,  1.950000 )     1.06537123
  WF centre and spread   30  (  5.849995, -0.001077,  1.950004 )     0.75826486
  WF centre and spread   31  (  3.897490,  1.950002,  5.850000 )     1.04444926
  WF centre and spread   32  (  3.892919,  1.949999,  5.850003 )     0.75956437
  WF centre and spread   33  (  3.897862,  1.949999,  5.850000 )     1.04485152
  WF centre and spread   34  (  5.849998, -0.002510,  5.850000 )     1.04444928
  WF centre and spread   35  (  5.850001, -0.002138,  5.850000 )     1.04485137
  WF centre and spread   36  (  5.850002, -0.007081,  5.849995 )     0.75956421
  WF centre and spread   37  (  1.950000, -1.950000,  1.950000 )     0.68470969
  WF centre and spread   38  (  1.950000, -1.950000,  1.950000 )     0.96255487
  WF centre and spread   39  (  1.950000, -1.950000,  1.950000 )     0.96255487
  WF centre and spread   40  (  1.950000, -1.950000,  1.949999 )     0.69390691
  WF centre and spread   41  (  1.950000, -1.950000,  1.950000 )     0.95772505
  WF centre and spread   42  (  1.950000, -1.950000,  5.850000 )     0.68967663
  WF centre and spread   43  (  1.950000, -1.950000,  5.850000 )     0.96890610
  WF centre and spread   44  (  1.950000, -1.950000,  5.850000 )     0.96890608
  WF centre and spread   45  (  1.950000, -1.950000,  5.850000 )     0.69065316
  WF centre and spread   46  (  1.950000, -1.950000,  5.850000 )     0.96793031
  WF centre and spread   47  (  1.950000,  1.950000,  1.950000 )     0.68728116
  WF centre and spread   48  (  1.950000,  1.950000,  1.950000 )     0.95716389
  WF centre and spread   49  (  1.950000,  1.950000,  1.950000 )     0.95716388
  WF centre and spread   50  (  1.950000,  1.950000,  1.950001 )     0.69273812
  WF centre and spread   51  (  1.950000,  1.950000,  1.950000 )     0.95647548
  WF centre and spread   52  (  1.950000,  1.950000,  5.850000 )     0.61913283
  WF centre and spread   53  (  1.950000,  1.950000,  5.850000 )     0.73371350
  WF centre and spread   54  (  1.950000,  1.950000,  5.850000 )     0.73371351
  WF centre and spread   55  (  1.950000,  1.950000,  5.850000 )     0.61769624
  WF centre and spread   56  (  1.950000,  1.950000,  5.850000 )     0.73735886
  Sum of centres and spreads (156.000001,  0.000001,194.999999 )    50.62360768

      2    -0.276E+00     0.8641434846       50.6236076742     303.51  <-- CONV
        O_D=      0.0002831 O_OD=      1.6516776 O_TOT=     50.6236077 <-- SPRD
 Delta: O_D= -0.3040138E-03 O_OD= -0.2760566E+00 O_TOT= -0.2763606E+00 <-- DLTA
 ------------------------------------------------------------------------------
 Cycle:      3
  WF centre and spread    1  (  1.950000, -1.950001, -0.002264 )     0.76085420
  WF centre and spread    2  (  1.950000, -1.950000, -0.000331 )     1.05650494
  WF centre and spread    3  (  1.950000, -1.950000, -0.000331 )     1.05650365
  WF centre and spread    4  (  1.950000, -1.949999,  3.902264 )     0.76085500
  WF centre and spread    5  (  1.950000, -1.950000,  3.900331 )     1.05650356
  WF centre and spread    6  (  1.950000, -1.950000,  3.900331 )     1.05650474
  WF centre and spread    7  (  1.950000,  1.950001, -0.007908 )     0.75197971
  WF centre and spread    8  (  1.950000,  1.950000, -0.002430 )     1.03315794
  WF centre and spread    9  (  1.950000,  1.950000, -0.002430 )     1.03317482
  WF centre and spread   10  (  1.950001,  0.000391,  1.950000 )     1.06162677
  WF centre and spread   11  (  1.950000,  0.000197,  1.950000 )     1.06078273
  WF centre and spread   12  (  1.950006,  0.001047,  1.950005 )     0.75537356
  WF centre and spread   13  (  1.950000,  1.949999,  3.907907 )     0.75198015
  WF centre and spread   14  (  1.950000,  1.950000,  3.902430 )     1.03317439
  WF centre and spread   15  (  1.950000,  1.950000,  3.902430 )     1.03315736
  WF centre and spread   16  (  1.950002,  0.002458,  5.850000 )     1.04042582
  WF centre and spread   17  (  1.949999,  0.002106,  5.850000 )     1.04070528
  WF centre and spread   18  (  1.949999,  0.007009,  5.849998 )     0.75709910
  WF centre and spread   19  (  3.900391, -1.950001,  1.950000 )     1.06162676
  WF centre and spread   20  (  3.901047, -1.950006,  1.949993 )     0.75537393
  WF centre and spread   21  (  3.900197, -1.950000,  1.950000 )     1.06078279
  WF centre and spread   22  (  3.902458, -1.950002,  5.850000 )     1.04042584
  WF centre and spread   23  (  3.907009, -1.949998,  5.850004 )     0.75709929
  WF centre and spread   24  (  3.902106, -1.949999,  5.850000 )     1.04070515
  WF centre and spread   25  (  3.899609,  1.950001,  1.950000 )     1.06162669
  WF centre and spread   26  (  3.898953,  1.950006,  1.949998 )     0.75537509
  WF centre and spread   27  (  3.899803,  1.950000,  1.950000 )     1.06078262
  WF centre and spread   28  (  5.849999, -0.000391,  1.950000 )     1.06162672
  WF centre and spread   29  (  5.850000, -0.000197,  1.950000 )     1.06078276
  WF centre and spread   30  (  5.849995, -0.001047,  1.950004 )     0.75537485
  WF centre and spread   31  (  3.897542,  1.950002,  5.850000 )     1.04042583
  WF centre and spread   32  (  3.892991,  1.949999,  5.850003 )     0.75709994
  WF centre and spread   33  (  3.897894,  1.949999,  5.850000 )     1.04070511
  WF centre and spread   34  (  5.849998, -0.002458,  5.850000 )     1.04042584
  WF centre and spread   35  (  5.850001, -0.002106,  5.850000 )     1.04070504
  WF centre and spread   36  (  5.850002, -0.007009,  5.849995 )     0.75709979
  WF centre and spread   37  (  1.950000, -1.950000,  1.950000 )     0.68333596
  WF centre and spread   38  (  1.950000, -1.950000,  1.950000 )     0.95944042
  WF centre and spread   39  (  1.950000, -1.950000,  1.950000 )     0.95944043
  WF centre and spread   40  (  1.950000, -1.950000,  1.949999 )     0.69232970
  WF centre and spread   41  (  1.950000, -1.950000,  1.950000 )     0.95490928
  WF centre and spread   42  (  1.950000, -1.950000,  5.850000 )     0.68851261
  WF centre and spread   43  (  1.950000, -1.950000,  5.850000 )     0.96581582
  WF centre and spread   44  (  1.950000, -1.950000,  5.850000 )     0.96581580
  WF centre and spread   45  (  1.950000, -1.950000,  5.850000 )     0.69040793
  WF centre and spread   46  (  1.950000, -1.950000,  5.850000 )     0.96497480
  WF centre and spread   47  (  1.950000,  1.950000,  1.950000 )     0.68672755
  WF centre and spread   48  (  1.950000,  1.950000,  1.950000 )     0.95404464
  WF centre and spread   49  (  1.950000,  1.950000,  1.950000 )     0.95404463
  WF centre and spread   50  (  1.950000,  1.950000,  1.950001 )     0.69064269
  WF centre and spread   51  (  1.950000,  1.950000,  1.950000 )     0.95370258
  WF centre and spread   52  (  1.950000,  1.950000,  5.850000 )     0.61860866
  WF centre and spread   53  (  1.950000,  1.950000,  5.850000 )     0.73027499
  WF centre and spread   54  (  1.950000,  1.950000,  5.850000 )     0.73027499
  WF centre and spread   55  (  1.950000,  1.950000,  5.850000 )     0.61692301
  WF centre and spread   56  (  1.950000,  1.950000,  5.850000 )     0.73406593
  Sum of centres and spreads (156.000001,  0.000001,194.999999 )    50.44270021

      3    -0.181E+00     0.6925891039       50.4427002036     307.77  <-- CONV
        O_D=      0.0001572 O_OD=      1.4708960 O_TOT=     50.4427002 <-- SPRD
 Delta: O_D= -0.1259427E-03 O_OD= -0.1807815E+00 O_TOT= -0.1809075E+00 <-- DLTA
 ------------------------------------------------------------------------------
 Cycle:      4
  WF centre and spread    1  (  1.950000, -1.950001, -0.002229 )     0.75867478
  WF centre and spread    2  (  1.950000, -1.950000, -0.000309 )     1.05307466
  WF centre and spread    3  (  1.950000, -1.950000, -0.000309 )     1.05307397
  WF centre and spread    4  (  1.950000, -1.949999,  3.902229 )     0.75867583
  WF centre and spread    5  (  1.950000, -1.950000,  3.900309 )     1.05307426
  WF centre and spread    6  (  1.950000, -1.950000,  3.900309 )     1.05307491
  WF centre and spread    7  (  1.950000,  1.950001, -0.007853 )     0.75031463
  WF centre and spread    8  (  1.950000,  1.950000, -0.002384 )     1.03032950
  WF centre and spread    9  (  1.950000,  1.950000, -0.002384 )     1.03034393
  WF centre and spread   10  (  1.950001,  0.000365,  1.950000 )     1.05819532
  WF centre and spread   11  (  1.950000,  0.000191,  1.950000 )     1.05713274
  WF centre and spread   12  (  1.950006,  0.001024,  1.950005 )     0.75326106
  WF centre and spread   13  (  1.950000,  1.949999,  3.907853 )     0.75031493
  WF centre and spread   14  (  1.950000,  1.950000,  3.902384 )     1.03034348
  WF centre and spread   15  (  1.950000,  1.950000,  3.902384 )     1.03032898
  WF centre and spread   16  (  1.950002,  0.002408,  5.850000 )     1.03754105
  WF centre and spread   17  (  1.949999,  0.002078,  5.850000 )     1.03744490
  WF centre and spread   18  (  1.949999,  0.006958,  5.849998 )     0.75525992
  WF centre and spread   19  (  3.900365, -1.950001,  1.950000 )     1.05819532
  WF centre and spread   20  (  3.901024, -1.950006,  1.949993 )     0.75326140
  WF centre and spread   21  (  3.900191, -1.950000,  1.950000 )     1.05713282
  WF centre and spread   22  (  3.902408, -1.950002,  5.850000 )     1.03754109
  WF centre and spread   23  (  3.906958, -1.949998,  5.850004 )     0.75526009
  WF centre and spread   24  (  3.902078, -1.949999,  5.850000 )     1.03744479
  WF centre and spread   25  (  3.899635,  1.950001,  1.950000 )     1.05819530
  WF centre and spread   26  (  3.898976,  1.950006,  1.949998 )     0.75326248
  WF centre and spread   27  (  3.899809,  1.950000,  1.950000 )     1.05713256
  WF centre and spread   28  (  5.849999, -0.000365,  1.950000 )     1.05819533
  WF centre and spread   29  (  5.850000, -0.000191,  1.950000 )     1.05713270
  WF centre and spread   30  (  5.849995, -0.001024,  1.950004 )     0.75326227
  WF centre and spread   31  (  3.897592,  1.950002,  5.850000 )     1.03754107
  WF centre and spread   32  (  3.893042,  1.949999,  5.850003 )     0.75526065
  WF centre and spread   33  (  3.897922,  1.949999,  5.850000 )     1.03744478
  WF centre and spread   34  (  5.849998, -0.002408,  5.850000 )     1.03754106
  WF centre and spread   35  (  5.850001, -0.002078,  5.850000 )     1.03744471
  WF centre and spread   36  (  5.850002, -0.006958,  5.849995 )     0.75526050
  WF centre and spread   37  (  1.950000, -1.950000,  1.950000 )     0.68373450
  WF centre and spread   38  (  1.950000, -1.950000,  1.950000 )     0.95810611
  WF centre and spread   39  (  1.950000, -1.950000,  1.950000 )     0.95810612
  WF centre and spread   40  (  1.950000, -1.950000,  1.949999 )     0.69246035
  WF centre and spread   41  (  1.950000, -1.950000,  1.950000 )     0.95342759
  WF centre and spread   42  (  1.950000, -1.950000,  5.850000 )     0.68914891
  WF centre and spread   43  (  1.950000, -1.950000,  5.850000 )     0.96444545
  WF centre and spread   44  (  1.950000, -1.950000,  5.850000 )     0.96444543
  WF centre and spread   45  (  1.950000, -1.950000,  5.850000 )     0.69142622
  WF centre and spread   46  (  1.950000, -1.950000,  5.850000 )     0.96342097
  WF centre and spread   47  (  1.950000,  1.950000,  1.950000 )     0.68755772
  WF centre and spread   48  (  1.950000,  1.950000,  1.950000 )     0.95265042
  WF centre and spread   49  (  1.950000,  1.950000,  1.950000 )     0.95265042
  WF centre and spread   50  (  1.950000,  1.950000,  1.950001 )     0.69107895
  WF centre and spread   51  (  1.950000,  1.950000,  1.950000 )     0.95222980
  WF centre and spread   52  (  1.950000,  1.950000,  5.850000 )     0.61884487
  WF centre and spread   53  (  1.950000,  1.950000,  5.850000 )     0.72798129
  WF centre and spread   54  (  1.950000,  1.950000,  5.850000 )     0.72798130
  WF centre and spread   55  (  1.950000,  1.950000,  5.850000 )     0.61739450
  WF centre and spread   56  (  1.950000,  1.950000,  5.850000 )     0.73166636
  Sum of centres and spreads (156.000001,  0.000001,194.999999 )    50.32572506

      4    -0.117E+00     0.5629186059       50.3257250581     312.03  <-- CONV
        O_D=      0.0001403 O_OD=      1.3539377 O_TOT=     50.3257251 <-- SPRD
 Delta: O_D= -0.1682061E-04 O_OD= -0.1169583E+00 O_TOT= -0.1169751E+00 <-- DLTA
 ------------------------------------------------------------------------------
 Cycle:      5
  WF centre and spread    1  (  1.950000, -1.950001, -0.002192 )     0.75666175
  WF centre and spread    2  (  1.950000, -1.950000, -0.000288 )     1.04954652
  WF centre and spread    3  (  1.950000, -1.950000, -0.000288 )     1.04954617
  WF centre and spread    4  (  1.950000, -1.949999,  3.902192 )     0.75666314
  WF centre and spread    5  (  1.950000, -1.950000,  3.900288 )     1.04954653
  WF centre and spread    6  (  1.950000, -1.950000,  3.900288 )     1.04954694
  WF centre and spread    7  (  1.950000,  1.950001, -0.007783 )     0.74870212
  WF centre and spread    8  (  1.950000,  1.950000, -0.002333 )     1.02747635
  WF centre and spread    9  (  1.950000,  1.950000, -0.002333 )     1.02748904
  WF centre and spread   10  (  1.950001,  0.000339,  1.950000 )     1.05470066
  WF centre and spread   11  (  1.950001,  0.000184,  1.950000 )     1.05356381
  WF centre and spread   12  (  1.950006,  0.001000,  1.950005 )     0.75142536
  WF centre and spread   13  (  1.950000,  1.949999,  3.907783 )     0.74870147
  WF centre and spread   14  (  1.950000,  1.950000,  3.902333 )     1.02748864
  WF centre and spread   15  (  1.950000,  1.950000,  3.902333 )     1.02747606
  WF centre and spread   16  (  1.950002,  0.002352,  5.850000 )     1.03457897
  WF centre and spread   17  (  1.949999,  0.002043,  5.850000 )     1.03422086
  WF centre and spread   18  (  1.949999,  0.006887,  5.849998 )     0.75340173
  WF centre and spread   19  (  3.900339, -1.950001,  1.950000 )     1.05470068
  WF centre and spread   20  (  3.901000, -1.950006,  1.949993 )     0.75142571
  WF centre and spread   21  (  3.900184, -1.950001,  1.950000 )     1.05356391
  WF centre and spread   22  (  3.902352, -1.950002,  5.850000 )     1.03457903
  WF centre and spread   23  (  3.906887, -1.949998,  5.850004 )     0.75340183
  WF centre and spread   24  (  3.902043, -1.949999,  5.850000 )     1.03422080
  WF centre and spread   25  (  3.899661,  1.950001,  1.950000 )     1.05470075
  WF centre and spread   26  (  3.899000,  1.950006,  1.949998 )     0.75142664
  WF centre and spread   27  (  3.899816,  1.950001,  1.950000 )     1.05356375
  WF centre and spread   28  (  5.849999, -0.000339,  1.950000 )     1.05470078
  WF centre and spread   29  (  5.849999, -0.000184,  1.950000 )     1.05356386
  WF centre and spread   30  (  5.849995, -0.001000,  1.950004 )     0.75142645
  WF centre and spread   31  (  3.897648,  1.950002,  5.850000 )     1.03457899
  WF centre and spread   32  (  3.893113,  1.949999,  5.850003 )     0.75340235
  WF centre and spread   33  (  3.897957,  1.949999,  5.850000 )     1.03422090
  WF centre and spread   34  (  5.849998, -0.002352,  5.850000 )     1.03457898
  WF centre and spread   35  (  5.850001, -0.002043,  5.850000 )     1.03422082
  WF centre and spread   36  (  5.850002, -0.006887,  5.849995 )     0.75340222
  WF centre and spread   37  (  1.950000, -1.950000,  1.950000 )     0.68467719
  WF centre and spread   38  (  1.950000, -1.950000,  1.950000 )     0.95784382
  WF centre and spread   39  (  1.950000, -1.950000,  1.950000 )     0.95784383
  WF centre and spread   40  (  1.950000, -1.950000,  1.949999 )     0.69354500
  WF centre and spread   41  (  1.950000, -1.950000,  1.950000 )     0.95313991
  WF centre and spread   42  (  1.950000, -1.950000,  5.850000 )     0.69055719
  WF centre and spread   43  (  1.950000, -1.950000,  5.850000 )     0.96408835
  WF centre and spread   44  (  1.950000, -1.950000,  5.850000 )     0.96408833
  WF centre and spread   45  (  1.950000, -1.950000,  5.850000 )     0.69281158
  WF centre and spread   46  (  1.950000, -1.950000,  5.850000 )     0.96301747
  WF centre and spread   47  (  1.950000,  1.950000,  1.950000 )     0.68901063
  WF centre and spread   48  (  1.950000,  1.950000,  1.950000 )     0.95220904
  WF centre and spread   49  (  1.950000,  1.950000,  1.950000 )     0.95220904
  WF centre and spread   50  (  1.950000,  1.950000,  1.950001 )     0.69199690
  WF centre and spread   51  (  1.950000,  1.950000,  1.950000 )     0.95195345
  WF centre and spread   52  (  1.950000,  1.950000,  5.850000 )     0.61992823
  WF centre and spread   53  (  1.950000,  1.950000,  5.850000 )     0.72616967
  WF centre and spread   54  (  1.950000,  1.950000,  5.850000 )     0.72616968
  WF centre and spread   55  (  1.950000,  1.950000,  5.850000 )     0.61848732
  WF centre and spread   56  (  1.950000,  1.950000,  5.850000 )     0.72995035
  Sum of centres and spreads (156.000001,  0.000001,194.999999 )    50.22611157

      5    -0.996E-01     0.4836640570       50.2261115674     316.25  <-- CONV
        O_D=      0.0000987 O_OD=      1.2543659 O_TOT=     50.2261116 <-- SPRD
 Delta: O_D= -0.4164348E-04 O_OD= -0.9957185E-01 O_TOT= -0.9961349E-01 <-- DLTA
 ------------------------------------------------------------------------------
 Cycle:      6
  WF centre and spread    1  (  1.950000, -1.950001, -0.002162 )     0.75499847
  WF centre and spread    2  (  1.950000, -1.950000, -0.000273 )     1.04569985
  WF centre and spread    3  (  1.950000, -1.950000, -0.000273 )     1.04569927
  WF centre and spread    4  (  1.950000, -1.949999,  3.902162 )     0.75500037
  WF centre and spread    5  (  1.950000, -1.950000,  3.900273 )     1.04569945
  WF centre and spread    6  (  1.950000, -1.950000,  3.900273 )     1.04570009
  WF centre and spread    7  (  1.950000,  1.950001, -0.007703 )     0.74749936
  WF centre and spread    8  (  1.950000,  1.950000, -0.002283 )     1.02430976
  WF centre and spread    9  (  1.950000,  1.950000, -0.002283 )     1.02432183
  WF centre and spread   10  (  1.950001,  0.000320,  1.950000 )     1.05103209
  WF centre and spread   11  (  1.950001,  0.000179,  1.950000 )     1.04987311
  WF centre and spread   12  (  1.950006,  0.000982,  1.950005 )     0.74986072
  WF centre and spread   13  (  1.950000,  1.949999,  3.907703 )     0.74749842
  WF centre and spread   14  (  1.950000,  1.950000,  3.902283 )     1.02432144
  WF centre and spread   15  (  1.950000,  1.950000,  3.902283 )     1.02430948
  WF centre and spread   16  (  1.950002,  0.002298,  5.850000 )     1.03143059
  WF centre and spread   17  (  1.949999,  0.002005,  5.850000 )     1.03097652
  WF centre and spread   18  (  1.949999,  0.006807,  5.849998 )     0.75199512
  WF centre and spread   19  (  3.900320, -1.950001,  1.950000 )     1.05103211
  WF centre and spread   20  (  3.900982, -1.950006,  1.949993 )     0.74986112
  WF centre and spread   21  (  3.900179, -1.950001,  1.950000 )     1.04987327
  WF centre and spread   22  (  3.902298, -1.950002,  5.850000 )     1.03143064
  WF centre and spread   23  (  3.906807, -1.949998,  5.850004 )     0.75199521
  WF centre and spread   24  (  3.902005, -1.949999,  5.850000 )     1.03097647
  WF centre and spread   25  (  3.899680,  1.950001,  1.950000 )     1.05103221
  WF centre and spread   26  (  3.899018,  1.950006,  1.949998 )     0.74986206
  WF centre and spread   27  (  3.899821,  1.950001,  1.950000 )     1.04987322
  WF centre and spread   28  (  5.849999, -0.000320,  1.950000 )     1.05103224
  WF centre and spread   29  (  5.849999, -0.000179,  1.950000 )     1.04987330
  WF centre and spread   30  (  5.849995, -0.000982,  1.950004 )     0.74986189
  WF centre and spread   31  (  3.897702,  1.950002,  5.850000 )     1.03143061
  WF centre and spread   32  (  3.893193,  1.949999,  5.850003 )     0.75199572
  WF centre and spread   33  (  3.897995,  1.949999,  5.850000 )     1.03097660
  WF centre and spread   34  (  5.849998, -0.002298,  5.850000 )     1.03143059
  WF centre and spread   35  (  5.850001, -0.002005,  5.850000 )     1.03097650
  WF centre and spread   36  (  5.850002, -0.006807,  5.849995 )     0.75199556
  WF centre and spread   37  (  1.950000, -1.950000,  1.950000 )     0.68560518
  WF centre and spread   38  (  1.950000, -1.950000,  1.950000 )     0.95873505
  WF centre and spread   39  (  1.950000, -1.950000,  1.950000 )     0.95873506
  WF centre and spread   40  (  1.950000, -1.950000,  1.949999 )     0.69420806
  WF centre and spread   41  (  1.950000, -1.950000,  1.950000 )     0.95412176
  WF centre and spread   42  (  1.950000, -1.950000,  5.850000 )     0.69157255
  WF centre and spread   43  (  1.950000, -1.950000,  5.850000 )     0.96481841
  WF centre and spread   44  (  1.950000, -1.950000,  5.850000 )     0.96481839
  WF centre and spread   45  (  1.950000, -1.950000,  5.850000 )     0.69373170
  WF centre and spread   46  (  1.950000, -1.950000,  5.850000 )     0.96386354
  WF centre and spread   47  (  1.950000,  1.950000,  1.950000 )     0.69007788
  WF centre and spread   48  (  1.950000,  1.950000,  1.950000 )     0.95284090
  WF centre and spread   49  (  1.950000,  1.950000,  1.950000 )     0.95284089
  WF centre and spread   50  (  1.950000,  1.950000,  1.950001 )     0.69283473
  WF centre and spread   51  (  1.950000,  1.950000,  1.950000 )     0.95294059
  WF centre and spread   52  (  1.950000,  1.950000,  5.850000 )     0.62099697
  WF centre and spread   53  (  1.950000,  1.950000,  5.850000 )     0.72512691
  WF centre and spread   54  (  1.950000,  1.950000,  5.850000 )     0.72512693
  WF centre and spread   55  (  1.950000,  1.950000,  5.850000 )     0.61932958
  WF centre and spread   56  (  1.950000,  1.950000,  5.850000 )     0.72918411
  Sum of centres and spreads (156.000001,  0.000001,194.999999 )    50.13724446

      6    -0.889E-01     0.4471004921       50.1372444606     320.47  <-- CONV
        O_D=      0.0001366 O_OD=      1.1654609 O_TOT=     50.1372445 <-- SPRD
 Delta: O_D=  0.3787440E-04 O_OD= -0.8890498E-01 O_TOT= -0.8886711E-01 <-- DLTA
 ------------------------------------------------------------------------------
 Cycle:      7
  WF centre and spread    1  (  1.950000, -1.950001, -0.002159 )     0.75434241
  WF centre and spread    2  (  1.950000, -1.950000, -0.000277 )     1.04471254
  WF centre and spread    3  (  1.950000, -1.950000, -0.000277 )     1.04471210
  WF centre and spread    4  (  1.950000, -1.949999,  3.902159 )     0.75434424
  WF centre and spread    5  (  1.950000, -1.950000,  3.900277 )     1.04471222
  WF centre and spread    6  (  1.950000, -1.950000,  3.900277 )     1.04471272
  WF centre and spread    7  (  1.950000,  1.950001, -0.007690 )     0.74672379
  WF centre and spread    8  (  1.950000,  1.950000, -0.002280 )     1.02338098
  WF centre and spread    9  (  1.950000,  1.950000, -0.002280 )     1.02339321
  WF centre and spread   10  (  1.950001,  0.000323,  1.950000 )     1.05004511
  WF centre and spread   11  (  1.950001,  0.000182,  1.950000 )     1.04893356
  WF centre and spread   12  (  1.950006,  0.000983,  1.950005 )     0.74926808
  WF centre and spread   13  (  1.950000,  1.949999,  3.907689 )     0.74672288
  WF centre and spread   14  (  1.950000,  1.950000,  3.902280 )     1.02339281
  WF centre and spread   15  (  1.950000,  1.950000,  3.902280 )     1.02338068
  WF centre and spread   16  (  1.950002,  0.002294,  5.850000 )     1.03052149
  WF centre and spread   17  (  1.949999,  0.002001,  5.850000 )     1.03006510
  WF centre and spread   18  (  1.949999,  0.006793,  5.849998 )     0.75123286
  WF centre and spread   19  (  3.900323, -1.950001,  1.950000 )     1.05004513
  WF centre and spread   20  (  3.900983, -1.950006,  1.949993 )     0.74926847
  WF centre and spread   21  (  3.900182, -1.950001,  1.950000 )     1.04893371
  WF centre and spread   22  (  3.902294, -1.950002,  5.850000 )     1.03052155
  WF centre and spread   23  (  3.906793, -1.949998,  5.850004 )     0.75123295
  WF centre and spread   24  (  3.902001, -1.949999,  5.850000 )     1.03006505
  WF centre and spread   25  (  3.899677,  1.950001,  1.950000 )     1.05004523
  WF centre and spread   26  (  3.899017,  1.950006,  1.949998 )     0.74926945
  WF centre and spread   27  (  3.899818,  1.950001,  1.950000 )     1.04893363
  WF centre and spread   28  (  5.849999, -0.000323,  1.950000 )     1.05004527
  WF centre and spread   29  (  5.849999, -0.000182,  1.950000 )     1.04893372
  WF centre and spread   30  (  5.849995, -0.000983,  1.950004 )     0.74926927
  WF centre and spread   31  (  3.897706,  1.950002,  5.850000 )     1.03052151
  WF centre and spread   32  (  3.893207,  1.949999,  5.850003 )     0.75123342
  WF centre and spread   33  (  3.897999,  1.949999,  5.850000 )     1.03006516
  WF centre and spread   34  (  5.849998, -0.002294,  5.850000 )     1.03052149
  WF centre and spread   35  (  5.850001, -0.002001,  5.850000 )     1.03006506
  WF centre and spread   36  (  5.850002, -0.006793,  5.849995 )     0.75123329
  WF centre and spread   37  (  1.950000, -1.950000,  1.950000 )     0.68434416
  WF centre and spread   38  (  1.950000, -1.950000,  1.950000 )     0.95843260
  WF centre and spread   39  (  1.950000, -1.950000,  1.950000 )     0.95843261
  WF centre and spread   40  (  1.950000, -1.950000,  1.949999 )     0.69291041
  WF centre and spread   41  (  1.950000, -1.950000,  1.950000 )     0.95376277
  WF centre and spread   42  (  1.950000, -1.950000,  5.850000 )     0.69047903
  WF centre and spread   43  (  1.950000, -1.950000,  5.850000 )     0.96454816
  WF centre and spread   44  (  1.950000, -1.950000,  5.850000 )     0.96454814
  WF centre and spread   45  (  1.950000, -1.950000,  5.850000 )     0.69294794
  WF centre and spread   46  (  1.950000, -1.950000,  5.850000 )     0.96350080
  WF centre and spread   47  (  1.950000,  1.950000,  1.950000 )     0.68923723
  WF centre and spread   48  (  1.950000,  1.950000,  1.950000 )     0.95254683
  WF centre and spread   49  (  1.950000,  1.950000,  1.950000 )     0.95254683
  WF centre and spread   50  (  1.950000,  1.950000,  1.950001 )     0.69135528
  WF centre and spread   51  (  1.950000,  1.950000,  1.950000 )     0.95257285
  WF centre and spread   52  (  1.950000,  1.950000,  5.850000 )     0.61969830
  WF centre and spread   53  (  1.950000,  1.950000,  5.850000 )     0.72476795
  WF centre and spread   54  (  1.950000,  1.950000,  5.850000 )     0.72476797
  WF centre and spread   55  (  1.950000,  1.950000,  5.850000 )     0.61814687
  WF centre and spread   56  (  1.950000,  1.950000,  5.850000 )     0.72876377
  Sum of centres and spreads (156.000001,  0.000001,194.999999 )    50.09311070

      7    -0.441E-01     0.4390176003       50.0931107022     324.75  <-- CONV
        O_D=      0.0000432 O_OD=      1.1214205 O_TOT=     50.0931107 <-- SPRD
 Delta: O_D= -0.9334640E-04 O_OD= -0.4404041E-01 O_TOT= -0.4413376E-01 <-- DLTA
 ------------------------------------------------------------------------------
 Cycle:      8
  WF centre and spread    1  (  1.950000, -1.950001, -0.002151 )     0.75385893
  WF centre and spread    2  (  1.950000, -1.950000, -0.000289 )     1.04325590
  WF centre and spread    3  (  1.950000, -1.950000, -0.000289 )     1.04325564
  WF centre and spread    4  (  1.950000, -1.949999,  3.902151 )     0.75386079
  WF centre and spread    5  (  1.950000, -1.950000,  3.900289 )     1.04325578
  WF centre and spread    6  (  1.950000, -1.950000,  3.900289 )     1.04325609
  WF centre and spread    7  (  1.950000,  1.950001, -0.007661 )     0.74636270
  WF centre and spread    8  (  1.950000,  1.950000, -0.002271 )     1.02193084
  WF centre and spread    9  (  1.950000,  1.950000, -0.002271 )     1.02194270
  WF centre and spread   10  (  1.950001,  0.000333,  1.950000 )     1.04849082
  WF centre and spread   11  (  1.950001,  0.000186,  1.950000 )     1.04741007
  WF centre and spread   12  (  1.950006,  0.000982,  1.950005 )     0.74886981
  WF centre and spread   13  (  1.950000,  1.949999,  3.907661 )     0.74636164
  WF centre and spread   14  (  1.950000,  1.950000,  3.902271 )     1.02194240
  WF centre and spread   15  (  1.950000,  1.950000,  3.902271 )     1.02193064
  WF centre and spread   16  (  1.950002,  0.002285,  5.850000 )     1.02898739
  WF centre and spread   17  (  1.949999,  0.001990,  5.850000 )     1.02883420
  WF centre and spread   18  (  1.949999,  0.006766,  5.849998 )     0.75097358
  WF centre and spread   19  (  3.900333, -1.950001,  1.950000 )     1.04849084
  WF centre and spread   20  (  3.900982, -1.950006,  1.949993 )     0.74887018
  WF centre and spread   21  (  3.900186, -1.950001,  1.950000 )     1.04741018
  WF centre and spread   22  (  3.902285, -1.950002,  5.850000 )     1.02898745
  WF centre and spread   23  (  3.906766, -1.949998,  5.850004 )     0.75097368
  WF centre and spread   24  (  3.901990, -1.949999,  5.850000 )     1.02883415
  WF centre and spread   25  (  3.899667,  1.950001,  1.950000 )     1.04849092
  WF centre and spread   26  (  3.899018,  1.950006,  1.949998 )     0.74887111
  WF centre and spread   27  (  3.899814,  1.950001,  1.950000 )     1.04741007
  WF centre and spread   28  (  5.849999, -0.000333,  1.950000 )     1.04849095
  WF centre and spread   29  (  5.849999, -0.000186,  1.950000 )     1.04741016
  WF centre and spread   30  (  5.849995, -0.000982,  1.950004 )     0.74887092
  WF centre and spread   31  (  3.897715,  1.950002,  5.850000 )     1.02898742
  WF centre and spread   32  (  3.893234,  1.949999,  5.850003 )     0.75097417
  WF centre and spread   33  (  3.898010,  1.949999,  5.850000 )     1.02883419
  WF centre and spread   34  (  5.849998, -0.002285,  5.850000 )     1.02898739
  WF centre and spread   35  (  5.850001, -0.001990,  5.850000 )     1.02883413
  WF centre and spread   36  (  5.850002, -0.006766,  5.849995 )     0.75097404
  WF centre and spread   37  (  1.950000, -1.950000,  1.950000 )     0.68350506
  WF centre and spread   38  (  1.950000, -1.950000,  1.950000 )     0.95863619
  WF centre and spread   39  (  1.950000, -1.950000,  1.950000 )     0.95863621
  WF centre and spread   40  (  1.950000, -1.950000,  1.949999 )     0.69217764
  WF centre and spread   41  (  1.950000, -1.950000,  1.950000 )     0.95383091
  WF centre and spread   42  (  1.950000, -1.950000,  5.850000 )     0.68961310
  WF centre and spread   43  (  1.950000, -1.950000,  5.850000 )     0.96478797
  WF centre and spread   44  (  1.950000, -1.950000,  5.850000 )     0.96478795
  WF centre and spread   45  (  1.950000, -1.950000,  5.850000 )     0.69220349
[...]
  WF centre and spread    3  (  1.950000, -1.950000, -0.000298 )     1.03196470
  WF centre and spread    4  (  1.950000, -1.949999,  3.902088 )     0.74925935
  WF centre and spread    5  (  1.950000, -1.950000,  3.900298 )     1.03196476
  WF centre and spread    6  (  1.950000, -1.950000,  3.900298 )     1.03196495
  WF centre and spread    7  (  1.950000,  1.950001, -0.007487 )     0.74233255
  WF centre and spread    8  (  1.950000,  1.950000, -0.002193 )     1.01221303
  WF centre and spread    9  (  1.950000,  1.950000, -0.002193 )     1.01222428
  WF centre and spread   10  (  1.950001,  0.000336,  1.950000 )     1.03723679
  WF centre and spread   11  (  1.950001,  0.000189,  1.950000 )     1.03619879
  WF centre and spread   12  (  1.950005,  0.000955,  1.950005 )     0.74496293
  WF centre and spread   13  (  1.950000,  1.949999,  3.907487 )     0.74233149
  WF centre and spread   14  (  1.950000,  1.950000,  3.902193 )     1.01222396
  WF centre and spread   15  (  1.950000,  1.950000,  3.902193 )     1.01221286
  WF centre and spread   16  (  1.950002,  0.002208,  5.850000 )     1.01921867
  WF centre and spread   17  (  1.949999,  0.001920,  5.850000 )     1.01929806
  WF centre and spread   18  (  1.949999,  0.006608,  5.849997 )     0.74694154
  WF centre and spread   19  (  3.900336, -1.950001,  1.950000 )     1.03723679
  WF centre and spread   20  (  3.900955, -1.950005,  1.949993 )     0.74496319
  WF centre and spread   21  (  3.900189, -1.950001,  1.950000 )     1.03619880
  WF centre and spread   22  (  3.902208, -1.950002,  5.850000 )     1.01921865
  WF centre and spread   23  (  3.906608, -1.949998,  5.850004 )     0.74694165
  WF centre and spread   24  (  3.901920, -1.949999,  5.850000 )     1.01929806
  WF centre and spread   25  (  3.899664,  1.950001,  1.950000 )     1.03723681
  WF centre and spread   26  (  3.899045,  1.950006,  1.949998 )     0.74496407
  WF centre and spread   27  (  3.899811,  1.950001,  1.950000 )     1.03619882
  WF centre and spread   28  (  5.849999, -0.000336,  1.950000 )     1.03723680
  WF centre and spread   29  (  5.849999, -0.000189,  1.950000 )     1.03619881
  WF centre and spread   30  (  5.849995, -0.000955,  1.950004 )     0.74496385
  WF centre and spread   31  (  3.897792,  1.950002,  5.850000 )     1.01921868
  WF centre and spread   32  (  3.893392,  1.949999,  5.850003 )     0.74694217
  WF centre and spread   33  (  3.898080,  1.949999,  5.850000 )     1.01929809
  WF centre and spread   34  (  5.849998, -0.002208,  5.850000 )     1.01921869
  WF centre and spread   35  (  5.850001, -0.001920,  5.850000 )     1.01929808
  WF centre and spread   36  (  5.850001, -0.006608,  5.849995 )     0.74694210
  WF centre and spread   37  (  1.950000, -1.950000,  1.950000 )     0.68452075
  WF centre and spread   38  (  1.950000, -1.950000,  1.950001 )     0.96987444
  WF centre and spread   39  (  1.950000, -1.950000,  1.949999 )     0.96987444
  WF centre and spread   40  (  1.950000, -1.950000,  1.949999 )     0.69341002
  WF centre and spread   41  (  1.950000, -1.950000,  1.950000 )     0.96480297
  WF centre and spread   42  (  1.950000, -1.950000,  5.850000 )     0.69101302
  WF centre and spread   43  (  1.950000, -1.950000,  5.849999 )     0.97578409
  WF centre and spread   44  (  1.950000, -1.950000,  5.850001 )     0.97578407
  WF centre and spread   45  (  1.950000, -1.950000,  5.850000 )     0.69387254
  WF centre and spread   46  (  1.950000, -1.950000,  5.850000 )     0.97407271
  WF centre and spread   47  (  1.950000,  1.950000,  1.950000 )     0.68989819
  WF centre and spread   48  (  1.950000,  1.950000,  1.950000 )     0.96334568
  WF centre and spread   49  (  1.950000,  1.950000,  1.950000 )     0.96334567
  WF centre and spread   50  (  1.950000,  1.950000,  1.950001 )     0.69163517
  WF centre and spread   51  (  1.950000,  1.950000,  1.950000 )     0.96375051
  WF centre and spread   52  (  1.950000,  1.950000,  5.850000 )     0.62091782
  WF centre and spread   53  (  1.950000,  1.950000,  5.850000 )     0.72921962
  WF centre and spread   54  (  1.950000,  1.950000,  5.850000 )     0.72921961
  WF centre and spread   55  (  1.950000,  1.950000,  5.850000 )     0.61951867
  WF centre and spread   56  (  1.950000,  1.950000,  5.850000 )     0.73339515
  Sum of centres and spreads (156.000001,  0.000001,194.999999 )    49.87260092

    298     0.000E+00     0.0000028628       49.8726009150    1328.17  <-- CONV
        O_D=      0.0000129 O_OD=      0.9009410 O_TOT=     49.8726009 <-- SPRD
 Delta: O_D=  0.3151691E-14 O_OD= -0.1010303E-13 O_TOT=  0.0000000E+00 <-- DLTA
 ------------------------------------------------------------------------------
 Cycle:    299
  WF centre and spread    1  (  1.950000, -1.950001, -0.002088 )     0.74925814
  WF centre and spread    2  (  1.950000, -1.950000, -0.000298 )     1.03196484
  WF centre and spread    3  (  1.950000, -1.950000, -0.000298 )     1.03196470
  WF centre and spread    4  (  1.950000, -1.949999,  3.902088 )     0.74925935
  WF centre and spread    5  (  1.950000, -1.950000,  3.900298 )     1.03196476
  WF centre and spread    6  (  1.950000, -1.950000,  3.900298 )     1.03196495
  WF centre and spread    7  (  1.950000,  1.950001, -0.007487 )     0.74233255
  WF centre and spread    8  (  1.950000,  1.950000, -0.002193 )     1.01221303
  WF centre and spread    9  (  1.950000,  1.950000, -0.002193 )     1.01222428
  WF centre and spread   10  (  1.950001,  0.000336,  1.950000 )     1.03723679
  WF centre and spread   11  (  1.950001,  0.000189,  1.950000 )     1.03619879
  WF centre and spread   12  (  1.950005,  0.000955,  1.950005 )     0.74496293
  WF centre and spread   13  (  1.950000,  1.949999,  3.907487 )     0.74233149
  WF centre and spread   14  (  1.950000,  1.950000,  3.902193 )     1.01222396
  WF centre and spread   15  (  1.950000,  1.950000,  3.902193 )     1.01221286
  WF centre and spread   16  (  1.950002,  0.002208,  5.850000 )     1.01921867
  WF centre and spread   17  (  1.949999,  0.001920,  5.850000 )     1.01929806
  WF centre and spread   18  (  1.949999,  0.006608,  5.849997 )     0.74694154
  WF centre and spread   19  (  3.900336, -1.950001,  1.950000 )     1.03723679
  WF centre and spread   20  (  3.900955, -1.950005,  1.949993 )     0.74496319
  WF centre and spread   21  (  3.900189, -1.950001,  1.950000 )     1.03619880
  WF centre and spread   22  (  3.902208, -1.950002,  5.850000 )     1.01921865
  WF centre and spread   23  (  3.906608, -1.949998,  5.850004 )     0.74694165
  WF centre and spread   24  (  3.901920, -1.949999,  5.850000 )     1.01929806
  WF centre and spread   25  (  3.899664,  1.950001,  1.950000 )     1.03723681
  WF centre and spread   26  (  3.899045,  1.950006,  1.949998 )     0.74496407
  WF centre and spread   27  (  3.899811,  1.950001,  1.950000 )     1.03619882
  WF centre and spread   28  (  5.849999, -0.000336,  1.950000 )     1.03723680
  WF centre and spread   29  (  5.849999, -0.000189,  1.950000 )     1.03619881
  WF centre and spread   30  (  5.849995, -0.000955,  1.950004 )     0.74496385
  WF centre and spread   31  (  3.897792,  1.950002,  5.850000 )     1.01921868
  WF centre and spread   32  (  3.893392,  1.949999,  5.850003 )     0.74694217
  WF centre and spread   33  (  3.898080,  1.949999,  5.850000 )     1.01929809
  WF centre and spread   34  (  5.849998, -0.002208,  5.850000 )     1.01921869
  WF centre and spread   35  (  5.850001, -0.001920,  5.850000 )     1.01929808
  WF centre and spread   36  (  5.850001, -0.006608,  5.849995 )     0.74694210
  WF centre and spread   37  (  1.950000, -1.950000,  1.950000 )     0.68452075
  WF centre and spread   38  (  1.950000, -1.950000,  1.950001 )     0.96987444
  WF centre and spread   39  (  1.950000, -1.950000,  1.949999 )     0.96987444
  WF centre and spread   40  (  1.950000, -1.950000,  1.949999 )     0.69341002
  WF centre and spread   41  (  1.950000, -1.950000,  1.950000 )     0.96480297
  WF centre and spread   42  (  1.950000, -1.950000,  5.850000 )     0.69101302
  WF centre and spread   43  (  1.950000, -1.950000,  5.849999 )     0.97578408
  WF centre and spread   44  (  1.950000, -1.950000,  5.850001 )     0.97578407
  WF centre and spread   45  (  1.950000, -1.950000,  5.850000 )     0.69387254
  WF centre and spread   46  (  1.950000, -1.950000,  5.850000 )     0.97407270
  WF centre and spread   47  (  1.950000,  1.950000,  1.950000 )     0.68989819
  WF centre and spread   48  (  1.950000,  1.950000,  1.950000 )     0.96334568
  WF centre and spread   49  (  1.950000,  1.950000,  1.950000 )     0.96334567
  WF centre and spread   50  (  1.950000,  1.950000,  1.950001 )     0.69163517
  WF centre and spread   51  (  1.950000,  1.950000,  1.950000 )     0.96375051
  WF centre and spread   52  (  1.950000,  1.950000,  5.850000 )     0.62091782
  WF centre and spread   53  (  1.950000,  1.950000,  5.850000 )     0.72921962
  WF centre and spread   54  (  1.950000,  1.950000,  5.850000 )     0.72921961
  WF centre and spread   55  (  1.950000,  1.950000,  5.850000 )     0.61951867
  WF centre and spread   56  (  1.950000,  1.950000,  5.850000 )     0.73339515
  Sum of centres and spreads (156.000001,  0.000001,194.999999 )    49.87260092

    299    -0.114E-12     0.0000028625       49.8726009150    1332.35  <-- CONV
        O_D=      0.0000129 O_OD=      0.9009410 O_TOT=     49.8726009 <-- SPRD
 Delta: O_D=  0.3789112E-13 O_OD= -0.1494360E-12 O_TOT= -0.1136868E-12 <-- DLTA
 ------------------------------------------------------------------------------
 Cycle:    300
  WF centre and spread    1  (  1.950000, -1.950001, -0.002088 )     0.74925814
  WF centre and spread    2  (  1.950000, -1.950000, -0.000298 )     1.03196484
  WF centre and spread    3  (  1.950000, -1.950000, -0.000298 )     1.03196470
  WF centre and spread    4  (  1.950000, -1.949999,  3.902088 )     0.74925936
  WF centre and spread    5  (  1.950000, -1.950000,  3.900298 )     1.03196476
  WF centre and spread    6  (  1.950000, -1.950000,  3.900298 )     1.03196495
  WF centre and spread    7  (  1.950000,  1.950001, -0.007487 )     0.74233255
  WF centre and spread    8  (  1.950000,  1.950000, -0.002193 )     1.01221303
  WF centre and spread    9  (  1.950000,  1.950000, -0.002193 )     1.01222428
  WF centre and spread   10  (  1.950001,  0.000336,  1.950000 )     1.03723679
  WF centre and spread   11  (  1.950001,  0.000189,  1.950000 )     1.03619879
  WF centre and spread   12  (  1.950005,  0.000955,  1.950005 )     0.74496293
  WF centre and spread   13  (  1.950000,  1.949999,  3.907487 )     0.74233149
  WF centre and spread   14  (  1.950000,  1.950000,  3.902193 )     1.01222396
  WF centre and spread   15  (  1.950000,  1.950000,  3.902193 )     1.01221286
  WF centre and spread   16  (  1.950002,  0.002208,  5.850000 )     1.01921867
  WF centre and spread   17  (  1.949999,  0.001920,  5.850000 )     1.01929806
  WF centre and spread   18  (  1.949999,  0.006608,  5.849997 )     0.74694154
  WF centre and spread   19  (  3.900336, -1.950001,  1.950000 )     1.03723679
  WF centre and spread   20  (  3.900955, -1.950005,  1.949993 )     0.74496319
  WF centre and spread   21  (  3.900189, -1.950001,  1.950000 )     1.03619880
  WF centre and spread   22  (  3.902208, -1.950002,  5.850000 )     1.01921865
  WF centre and spread   23  (  3.906608, -1.949998,  5.850004 )     0.74694165
  WF centre and spread   24  (  3.901920, -1.949999,  5.850000 )     1.01929806
  WF centre and spread   25  (  3.899664,  1.950001,  1.950000 )     1.03723681
  WF centre and spread   26  (  3.899045,  1.950006,  1.949998 )     0.74496407
  WF centre and spread   27  (  3.899811,  1.950001,  1.950000 )     1.03619882
  WF centre and spread   28  (  5.849999, -0.000336,  1.950000 )     1.03723680
  WF centre and spread   29  (  5.849999, -0.000189,  1.950000 )     1.03619881
  WF centre and spread   30  (  5.849995, -0.000955,  1.950004 )     0.74496385
  WF centre and spread   31  (  3.897792,  1.950002,  5.850000 )     1.01921868
  WF centre and spread   32  (  3.893392,  1.949999,  5.850003 )     0.74694217
  WF centre and spread   33  (  3.898080,  1.949999,  5.850000 )     1.01929809
  WF centre and spread   34  (  5.849998, -0.002208,  5.850000 )     1.01921869
  WF centre and spread   35  (  5.850001, -0.001920,  5.850000 )     1.01929808
  WF centre and spread   36  (  5.850001, -0.006608,  5.849995 )     0.74694210
  WF centre and spread   37  (  1.950000, -1.950000,  1.950000 )     0.68452075
  WF centre and spread   38  (  1.950000, -1.950000,  1.950001 )     0.96987444
  WF centre and spread   39  (  1.950000, -1.950000,  1.949999 )     0.96987444
  WF centre and spread   40  (  1.950000, -1.950000,  1.949999 )     0.69341002
  WF centre and spread   41  (  1.950000, -1.950000,  1.950000 )     0.96480296
  WF centre and spread   42  (  1.950000, -1.950000,  5.850000 )     0.69101302
  WF centre and spread   43  (  1.950000, -1.950000,  5.849999 )     0.97578408
  WF centre and spread   44  (  1.950000, -1.950000,  5.850001 )     0.97578407
  WF centre and spread   45  (  1.950000, -1.950000,  5.850000 )     0.69387254
  WF centre and spread   46  (  1.950000, -1.950000,  5.850000 )     0.97407270
  WF centre and spread   47  (  1.950000,  1.950000,  1.950000 )     0.68989819
  WF centre and spread   48  (  1.950000,  1.950000,  1.950000 )     0.96334568
  WF centre and spread   49  (  1.950000,  1.950000,  1.950000 )     0.96334567
  WF centre and spread   50  (  1.950000,  1.950000,  1.950001 )     0.69163517
  WF centre and spread   51  (  1.950000,  1.950000,  1.950000 )     0.96375051
  WF centre and spread   52  (  1.950000,  1.950000,  5.850000 )     0.62091782
  WF centre and spread   53  (  1.950000,  1.950000,  5.850000 )     0.72921962
  WF centre and spread   54  (  1.950000,  1.950000,  5.850000 )     0.72921961
  WF centre and spread   55  (  1.950000,  1.950000,  5.850000 )     0.61951867
  WF centre and spread   56  (  1.950000,  1.950000,  5.850000 )     0.73339515
  Sum of centres and spreads (156.000001,  0.000001,194.999999 )    49.87260092

    300    -0.142E-12     0.0000028594       49.8726009150    1334.61  <-- CONV
        O_D=      0.0000129 O_OD=      0.9009410 O_TOT=     49.8726009 <-- SPRD
 Delta: O_D=  0.3461401E-13 O_OD= -0.1797451E-12 O_TOT= -0.1421085E-12 <-- DLTA
 ------------------------------------------------------------------------------

 Writing checkpoint file wannier90.chk... done

 Final State
  WF centre and spread    1  (  1.950000, -1.950001, -0.002088 )     0.74925814
  WF centre and spread    2  (  1.950000, -1.950000, -0.000298 )     1.03196484
  WF centre and spread    3  (  1.950000, -1.950000, -0.000298 )     1.03196470
  WF centre and spread    4  (  1.950000, -1.949999,  3.902088 )     0.74925936
  WF centre and spread    5  (  1.950000, -1.950000,  3.900298 )     1.03196476
  WF centre and spread    6  (  1.950000, -1.950000,  3.900298 )     1.03196495
  WF centre and spread    7  (  1.950000,  1.950001, -0.007487 )     0.74233255
  WF centre and spread    8  (  1.950000,  1.950000, -0.002193 )     1.01221303
  WF centre and spread    9  (  1.950000,  1.950000, -0.002193 )     1.01222428
  WF centre and spread   10  (  1.950001,  0.000336,  1.950000 )     1.03723679
  WF centre and spread   11  (  1.950001,  0.000189,  1.950000 )     1.03619879
  WF centre and spread   12  (  1.950005,  0.000955,  1.950005 )     0.74496293
  WF centre and spread   13  (  1.950000,  1.949999,  3.907487 )     0.74233149
  WF centre and spread   14  (  1.950000,  1.950000,  3.902193 )     1.01222396
  WF centre and spread   15  (  1.950000,  1.950000,  3.902193 )     1.01221286
  WF centre and spread   16  (  1.950002,  0.002208,  5.850000 )     1.01921867
  WF centre and spread   17  (  1.949999,  0.001920,  5.850000 )     1.01929806
  WF centre and spread   18  (  1.949999,  0.006608,  5.849997 )     0.74694154
  WF centre and spread   19  (  3.900336, -1.950001,  1.950000 )     1.03723679
  WF centre and spread   20  (  3.900955, -1.950005,  1.949993 )     0.74496319
  WF centre and spread   21  (  3.900189, -1.950001,  1.950000 )     1.03619880
  WF centre and spread   22  (  3.902208, -1.950002,  5.850000 )     1.01921865
  WF centre and spread   23  (  3.906608, -1.949998,  5.850004 )     0.74694165
  WF centre and spread   24  (  3.901920, -1.949999,  5.850000 )     1.01929806
  WF centre and spread   25  (  3.899664,  1.950001,  1.950000 )     1.03723681
  WF centre and spread   26  (  3.899045,  1.950006,  1.949998 )     0.74496407
  WF centre and spread   27  (  3.899811,  1.950001,  1.950000 )     1.03619882
  WF centre and spread   28  (  5.849999, -0.000336,  1.950000 )     1.03723680
  WF centre and spread   29  (  5.849999, -0.000189,  1.950000 )     1.03619881
  WF centre and spread   30  (  5.849995, -0.000955,  1.950004 )     0.74496385
  WF centre and spread   31  (  3.897792,  1.950002,  5.850000 )     1.01921868
  WF centre and spread   32  (  3.893392,  1.949999,  5.850003 )     0.74694217
  WF centre and spread   33  (  3.898080,  1.949999,  5.850000 )     1.01929809
  WF centre and spread   34  (  5.849998, -0.002208,  5.850000 )     1.01921869
  WF centre and spread   35  (  5.850001, -0.001920,  5.850000 )     1.01929808
  WF centre and spread   36  (  5.850001, -0.006608,  5.849995 )     0.74694210
  WF centre and spread   37  (  1.950000, -1.950000,  1.950000 )     0.68452075
  WF centre and spread   38  (  1.950000, -1.950000,  1.950001 )     0.96987444
  WF centre and spread   39  (  1.950000, -1.950000,  1.949999 )     0.96987444
  WF centre and spread   40  (  1.950000, -1.950000,  1.949999 )     0.69341002
  WF centre and spread   41  (  1.950000, -1.950000,  1.950000 )     0.96480296
  WF centre and spread   42  (  1.950000, -1.950000,  5.850000 )     0.69101302
  WF centre and spread   43  (  1.950000, -1.950000,  5.849999 )     0.97578408
  WF centre and spread   44  (  1.950000, -1.950000,  5.850001 )     0.97578407
  WF centre and spread   45  (  1.950000, -1.950000,  5.850000 )     0.69387254
  WF centre and spread   46  (  1.950000, -1.950000,  5.850000 )     0.97407270
  WF centre and spread   47  (  1.950000,  1.950000,  1.950000 )     0.68989819
  WF centre and spread   48  (  1.950000,  1.950000,  1.950000 )     0.96334568
  WF centre and spread   49  (  1.950000,  1.950000,  1.950000 )     0.96334567
  WF centre and spread   50  (  1.950000,  1.950000,  1.950001 )     0.69163517
  WF centre and spread   51  (  1.950000,  1.950000,  1.950000 )     0.96375051
  WF centre and spread   52  (  1.950000,  1.950000,  5.850000 )     0.62091782
  WF centre and spread   53  (  1.950000,  1.950000,  5.850000 )     0.72921962
  WF centre and spread   54  (  1.950000,  1.950000,  5.850000 )     0.72921961
  WF centre and spread   55  (  1.950000,  1.950000,  5.850000 )     0.61951867
  WF centre and spread   56  (  1.950000,  1.950000,  5.850000 )     0.73339515
  Sum of centres and spreads (156.000001,  0.000001,194.999999 )    49.87260092

         Spreads (Ang^2)       Omega I      =    48.971647012
        ================       Omega D      =     0.000012905
                               Omega OD     =     0.900940998
    Final Spread (Ang^2)       Omega Total  =    49.872600915
 ------------------------------------------------------------------------------

 Wannier centres written to file wannier90_centres.xyz
 Time for wannierise         1039.907 (sec)

 Writing checkpoint file wannier90.chk... done

 *---------------------------------------------------------------------------*
 |                               PLOTTING                                    |
 *---------------------------------------------------------------------------*


 Calculating interpolated band-structure

 Time to calculate interpolated band structure      43.395 (sec)

 Exiting.......
 wrong irdist_ws
