
             +---------------------------------------------------+
             |                                                   |
             |                   WANNIER90                       |
             |                                                   |
             +---------------------------------------------------+
             |                                                   |
             |        Welcome to the Maximally-Localized         |
             |        Generalized Wannier Functions code         |
             |            http://www.wannier.org                 |
             |                                                   |
             |  Wannier90 v2.x Authors:                          |
             |    Arash A. Mostofi  (Imperial College London)    |
             |    Giovanni Pizzi    (EPFL)                       |
             |    Ivo Souza         (Universidad del Pais Vasco) |
             |    Jonathan R. Yates (University of Oxford)       |
             |                                                   |
             |  Wannier90 Contributors:                          |
             |    Young-Su Lee       (KIST, S. Korea)            |
             |    Matthew Shelley    (Imperial College London)   |
             |    Nicolas Poilvert   (Penn State University)     |
             |    Raffaello Bianco   (Paris 6 and CNRS)          |
             |    Gabriele Sclauzero (ETH Zurich)                |
             |    David Strubbe (MIT, USA)                       |
             |    Rei Sakuma (Lund University, Sweden)           |
             |    Yusuke Nomura (U. Tokyo, Japan)                |
             |    Takashi Koretsune (Riken, Japan)               |
             |    Yoshiro Nohara (ASMS Co. Ltd., Japan)          |
             |    Ryotaro Arita (Riken, Japan)                   |
             |    Lorenzo Paulatto (UPMC Paris)                  |
             |    Florian Thole (ETH Zurich)                     |
             |    Pablo Garcia Fernandez (Unican, Spain)         |
             |    Dominik Gresch (ETH Zurich)                    |
             |    Samuel Ponce (University of Oxford)            |
             |    Marco Gibertini (EPFL)                         |
             |    Christian Stieger (ETHZ, CH)                   |
             |    Stepan Tsirkin (Universidad del Pais Vasco)    |
             |                                                   |
             |  Wannier77 Authors:                               |
             |    Nicola Marzari    (EPFL)                       |
             |    Ivo Souza         (Universidad del Pais Vasco) |
             |    David Vanderbilt  (Rutgers University)         |
             |                                                   |
             |  Please cite                                      |
             |                                                   |
             |  [ref] "An updated version of Wannier90:          |
             |        A Tool for Obtaining Maximally Localised   |
             |        Wannier Functions", A. A. Mostofi,         |
             |        J. R. Yates, G. Pizzi, Y. S. Lee,          |
             |        I. Souza, D. Vanderbilt and N. Marzari,    |
             |        Comput. Phys. Commun. 185, 2309 (2014)     |
             |        http://dx.doi.org/10.1016/j.cpc.2014.05.003|
             |                                                   |
             |  in any publications arising from the use of      |
             |  this code. For the method please cite            |
             |                                                   |
             |  [ref] "Maximally Localized Generalised Wannier   |
             |         Functions for Composite Energy Bands"     |
             |         N. Marzari and D. Vanderbilt              |
             |         Phys. Rev. B 56 12847 (1997)              |
             |                                                   |
             |  [ref] "Maximally Localized Wannier Functions     |
             |         for Entangled Energy Bands"               |
             |         I. Souza, N. Marzari and D. Vanderbilt    |
             |         Phys. Rev. B 65 035109 (2001)             |
             |                                                   |
             |                                                   |
             | Copyright (c) 1996-2017                           |
             |        Arash A. Mostofi, Jonathan R. Yates,       |
             |        Young-Su Lee, Giovanni Pizzi, Ivo Souza,   |
             |        David Vanderbilt and Nicola Marzari        |
             |                                                   |
             |        Release: 2.1.0   13th January 2017         |
             |                                                   |
             | This program is free software; you can            |
             | redistribute it and/or modify it under the terms  |
             | of the GNU General Public License as published by |
             | the Free Software Foundation; either version 2 of |
             | the License, or (at your option) any later version|
             |                                                   |
             | This program is distributed in the hope that it   |
             | will be useful, but WITHOUT ANY WARRANTY; without |
             | even the implied warranty of MERCHANTABILITY or   |
             | FITNESS FOR A PARTICULAR PURPOSE. See the GNU     |
             | General Public License for more details.          |
             |                                                   |
             | You should have received a copy of the GNU General|
             | Public License along with this program; if not,   |
             | write to the Free Software Foundation, Inc.,      |
             | 675 Mass Ave, Cambridge, MA 02139, USA.           |
             |                                                   |
             +---------------------------------------------------+
             |    Execution started on  2May2018 at 13:33:09     |
             +---------------------------------------------------+
 
 ******************************************************************************
 * -> Using CODATA 2006 constant values                                       *
 *    (http://physics.nist.gov/cuu/Constants/index.html)                      *
 * -> Using Bohr value from CODATA                                            *
 ******************************************************************************
 

                                    ------
                                    SYSTEM
                                    ------

                              Lattice Vectors (Ang)
                    a_1     3.900000  -3.900000   0.000000
                    a_2     3.900000   3.900000   0.000000
                    a_3     0.000000   0.000000   7.800000

                   Unit Cell Volume:     237.27600  (Ang^3)

                        Reciprocal-Space Vectors (Ang^-1)
                    b_1     0.805537  -0.805537   0.000000
                    b_2     0.805537   0.805537  -0.000000
                    b_3    -0.000000   0.000000   0.805537
  
 *----------------------------------------------------------------------------*
 |   Site       Fractional Coordinate          Cartesian Coordinate (Ang)     |
 +----------------------------------------------------------------------------+
 | Ti   1   0.50000   0.00000   0.25000   |    1.95000  -1.95000   1.95000    |
 | Ti   2   0.50000   0.00000   0.75000   |    1.95000  -1.95000   5.85000    |
 | Ti   3   0.00000   0.50000   0.25000   |    1.95000   1.95000   1.95000    |
 | Ti   4   0.00000   0.50000   0.75000   |    1.95000   1.95000   5.85000    |
 | O    1   0.50000   0.00000   0.00000   |    1.95000  -1.95000   0.00000    |
 | O    2   0.50000   0.00000   0.50000   |    1.95000  -1.95000   3.90000    |
 | O    3   0.00000   0.50000   0.00000   |    1.95000   1.95000   0.00000    |
 | O    4   0.25000   0.25000   0.25000   |    1.95000   0.00000   1.95000    |
 | O    5   0.00000   0.50000   0.50000   |    1.95000   1.95000   3.90000    |
 | O    6   0.25000   0.25000   0.75000   |    1.95000   0.00000   5.85000    |
 | O    7   0.75000   0.25000   0.25000   |    3.90000  -1.95000   1.95000    |
 | O    8   0.75000   0.25000   0.75000   |    3.90000  -1.95000   5.85000    |
 | O    9   0.25000   0.75000   0.25000   |    3.90000   1.95000   1.95000    |
 | O   10   0.75000   0.75000   0.25000   |    5.85000   0.00000   1.95000    |
 | O   11   0.25000   0.75000   0.75000   |    3.90000   1.95000   5.85000    |
 | O   12   0.75000   0.75000   0.75000   |    5.85000   0.00000   5.85000    |
 | Sr   1   0.00000   0.00000   0.00000   |    0.00000   0.00000   0.00000    |
 | Sr   2   0.00000   0.00000   0.50000   |    0.00000   0.00000   3.90000    |
 | Sr   3   0.50000   0.50000   0.00000   |    3.90000   0.00000   0.00000    |
 | Sr   4   0.50000   0.50000   0.50000   |    3.90000   0.00000   3.90000    |
 *----------------------------------------------------------------------------*
  
                                ------------
                                K-POINT GRID
                                ------------
  
             Grid size =  6 x  6 x  4      Total points =  144
  
  
 *---------------------------------- MAIN ------------------------------------*
 |  Number of Wannier Functions               :                56             |
 |  Number of input Bloch states              :               120             |
 |  Output verbosity (1=low, 5=high)          :                 1             |
 |  Timing Level (1=low, 5=high)              :                 1             |
 |  Optimisation (0=memory, 3=speed)          :                 3             |
 |  Length Unit                               :               Ang             |
 |  Post-processing setup (write *.nnkp)      :                 F             |
 |  Using Gamma-only branch of algorithms     :                 F             |
 *----------------------------------------------------------------------------*
 *------------------------------- WANNIERISE ---------------------------------*
 |  Total number of iterations                :               300             |
 |  Number of CG steps before reset           :                 5             |
 |  Trial step length for line search         :             2.000             |
 |  Convergence tolerence                     :         0.100E-09             |
 |  Convergence window                        :                -1             |
 |  Iterations between writing output         :                 1             |
 |  Iterations between backing up to disk     :               100             |
 |  Write r^2_nm to file                      :                 F             |
 |  Write xyz WF centres to file              :                 T             |
 |  Write on-site energies <0n|H|0n> to file  :                 F             |
 |  Use guiding centre to control phases      :                 T             |
 |  Use phases for initial projections        :                 F             |
 |  Iterations before starting guiding centres:                 0             |
 |  Iterations between using guiding centres  :                 1             |
 *----------------------------------------------------------------------------*
 *------------------------------- DISENTANGLE --------------------------------*
 |  Using band disentanglement                :                 T             |
 |  Total number of iterations                :               200             |
 |  Mixing ratio                              :             0.500             |
 |  Convergence tolerence                     :         1.000E-10             |
 |  Convergence window                        :                 3             |
 *----------------------------------------------------------------------------*
 *-------------------------------- PLOTTING ----------------------------------*
 |  Plotting interpolated bandstructure       :                 T             |
 |   Number of K-path sections                :                 6             |
 |   Divisions along first K-path section     :               410             |
 |   Output format                            :           gnuplot             |
 |   Output mode                              :               s-k             |
 *----------------------------------------------------------------------------*
 |   K-space path sections:                                                   |
 |    From:  X    0.500  0.000  0.000     To:  G    0.000  0.000  0.500       |
 |    From:  G    0.000  0.000  0.500     To:  Y    0.000  0.500  0.000       |
 |    From:  Y    0.000  0.500  0.000     To:  S    0.500  0.500  0.000       |
 |    From:  S    0.500  0.500  0.000     To:  X    0.500  0.000  0.000       |
 |    From:  X    0.500  0.000  0.000     To:  R    0.500  0.500  0.500       |
 |    From:  R    0.500  0.500  0.500     To:  G    0.000  0.000  0.000       |
 *----------------------------------------------------------------------------*
 |  Plotting Hamiltonian in WF basis          :                 T             |
 *----------------------------------------------------------------------------*
 Time to read parameters        0.188 (sec)

 *---------------------------------- K-MESH ----------------------------------*
 +----------------------------------------------------------------------------+
 |                    Distance to Nearest-Neighbour Shells                    |
 |                    ------------------------------------                    |
 |          Shell             Distance (Ang^-1)          Multiplicity         |
 |          -----             -----------------          ------------         |
 |             1                   0.189867                      4            |
 |             2                   0.201384                      2            |
 |             3                   0.268512                      4            |
 |             4                   0.276776                      8            |
 |             5                   0.335640                      8            |
 |             6                   0.379734                      4            |
 |             7                   0.402768                      2            |
 |             8                   0.424555                      8            |
 |             9                   0.429829                      8            |
 |            10                   0.445277                      8            |
 |            11                   0.469896                     16            |
 |            12                   0.484067                      8            |
 |            13                   0.537024                      4            |
 |            14                   0.553552                      8            |
 |            15                   0.569600                      4            |
 |            16                   0.573542                      8            |
 |            17                   0.585209                     16            |
 |            18                   0.600412                      8            |
 |            19                   0.604152                     10            |
 |            20                   0.633285                     24            |
 |            21                   0.661135                      8            |
 |            22                   0.671280                      8            |
 |            23                   0.684574                      8            |
 |            24                   0.697615                      8            |
 +----------------------------------------------------------------------------+
 | The b-vectors are chosen automatically                                     |
 | The following shells are used:   1,  2                                     |
 +----------------------------------------------------------------------------+
 |                        Shell   # Nearest-Neighbours                        |
 |                        -----   --------------------                        |
 |                          1               4                                 |
 |                          2               2                                 |
 +----------------------------------------------------------------------------+
 | Completeness relation is fully satisfied [Eq. (B1), PRB 56, 12847 (1997)]  |
 +----------------------------------------------------------------------------+
 |                  b_k Vectors (Ang^-1) and Weights (Ang^2)                  |
 |                  ----------------------------------------                  |
 |            No.         b_k(x)      b_k(y)      b_k(z)        w_b           |
 |            ---        --------------------------------     --------        |
 |             1         0.134256   -0.134256    0.000000    13.869857        |
 |             2        -0.134256    0.134256    0.000000    13.869857        |
 |             3         0.134256    0.134256    0.000000    13.869857        |
 |             4        -0.134256   -0.134256    0.000000    13.869857        |
 |             5         0.000000    0.000000    0.201384    12.328762        |
 |             6         0.000000    0.000000   -0.201384    12.328762        |
 +----------------------------------------------------------------------------+
 |                           b_k Directions (Ang^-1)                          |
 |                           -----------------------                          |
 |            No.           x           y           z                         |
 |            ---        --------------------------------                     |
 |             1         0.134256   -0.134256    0.000000                     |
 |             2         0.134256    0.134256    0.000000                     |
 |             3         0.000000    0.000000    0.201384                     |
 +----------------------------------------------------------------------------+
  
 *============================================================================*
 |                              MEMORY ESTIMATE                               |
 |         Maximum RAM allocated during each phase of the calculation         |
 *============================================================================*
 |                        Disentanglement          290.63 Mb                  |
 |                            Wannierise:          127.32 Mb                  |
 |                          plot_wannier:          127.32 Mb                  |
 *----------------------------------------------------------------------------*
  
 Starting a new Wannier90 calculation ...

 Time to get kmesh              0.635 (sec)

 Reading overlaps from wannier90.mmn    : File generated by VASP: unknown system

 Reading projections from wannier90.amn : File generated by VASP: unknown system

 Time to read overlaps         13.083 (sec)

 *------------------------------- DISENTANGLE --------------------------------*
 +----------------------------------------------------------------------------+
 |                              Energy  Windows                               |
 |                              ---------------                               |
 |                   Outer:   -3.39630  to   13.60370  (eV)                   |
 |                   Inner:   -1.39630  to    6.60370  (eV)                   |
 +----------------------------------------------------------------------------+
   Number of target bands to extract:   56

                   Unitarised projection of Wannier functions                  
                   ------------------------------------------                  
   A_mn = <psi_m|g_n> --> S = A.A^+ --> U = S^-1/2.A
   In dis_project... done
   Using an inner window (linner = T)
   In dis_proj_froz... done

                   Extraction of optimally-connected subspace                  
                   ------------------------------------------                  
 +---------------------------------------------------------------------+<-- DIS
 |  Iter     Omega_I(i-1)      Omega_I(i)      Delta (frac.)    Time   |<-- DIS
 +---------------------------------------------------------------------+<-- DIS
       1      55.20555277      53.25911949       3.655E-02     22.82    <-- DIS
       2      54.02238629      52.47545058       2.948E-02     24.63    <-- DIS
       3      53.16685875      51.86425412       2.512E-02     26.38    <-- DIS
       4      52.44724582      51.36594878       2.105E-02     28.19    <-- DIS
       5      51.85057171      50.95180821       1.764E-02     29.94    <-- DIS
       6      51.35480818      50.60237329       1.487E-02     31.69    <-- DIS
       7      50.93969917      50.30375397       1.264E-02     33.48    <-- DIS
       8      50.58871604      50.04577423       1.085E-02     35.37    <-- DIS
       9      50.28892286      49.82082345       9.396E-03     37.27    <-- DIS
      10      50.03034642      49.62310558       8.207E-03     39.16    <-- DIS
      11      49.80531714      49.44813361       7.223E-03     41.06    <-- DIS
      12      49.60791214      49.29238146       6.401E-03     42.88    <-- DIS
      13      49.43352065      49.15303947       5.706E-03     44.63    <-- DIS
      14      49.27851681      49.02783978       5.113E-03     46.39    <-- DIS
      15      49.14001717      48.91492962       4.602E-03     48.14    <-- DIS
      16      49.01570192      48.81277819       4.157E-03     49.88    <-- DIS
      17      48.90368299      48.72010735       3.768E-03     51.63    <-- DIS
      18      48.80240638      48.63583938       3.425E-03     53.38    <-- DIS
      19      48.71057917      48.55905725       3.120E-03     55.13    <-- DIS
      20      48.62711474      48.48897405       2.849E-03     56.87    <-- DIS
      21      48.55109114      48.42490928       2.606E-03     58.62    <-- DIS
      22      48.48171923      48.36627028       2.387E-03     60.36    <-- DIS
      23      48.41831809      48.31253751       2.190E-03     62.11    <-- DIS
      24      48.36029579      48.26325289       2.011E-03     63.90    <-- DIS
      25      48.30713429      48.21801034       1.848E-03     65.68    <-- DIS
      26      48.25837748      48.17644823       1.701E-03     67.42    <-- DIS
      27      48.21362151      48.13824308       1.566E-03     69.17    <-- DIS
      28      48.17250713      48.10310447       1.443E-03     71.06    <-- DIS
      29      48.13471325      48.07077080       1.330E-03     72.95    <-- DIS
      30      48.09995187      48.04100571       1.227E-03     74.70    <-- DIS
      31      48.06796370      48.01359510       1.132E-03     76.55    <-- DIS
      32      48.03851464      47.98834457       1.045E-03     78.43    <-- DIS
      33      48.01139273      47.96507727       9.656E-04     80.32    <-- DIS
      34      47.98640561      47.94363204       8.922E-04     82.20    <-- DIS
      35      47.96337834      47.92386175       8.246E-04     84.09    <-- DIS
      36      47.94215157      47.90563195       7.623E-04     85.97    <-- DIS
      37      47.92257985      47.88881960       7.050E-04     87.86    <-- DIS
      38      47.90453030      47.87331198       6.521E-04     89.74    <-- DIS
      39      47.88788135      47.85900576       6.033E-04     91.50    <-- DIS
      40      47.87252166      47.84580612       5.584E-04     93.25    <-- DIS
      41      47.85834914      47.83362600       5.169E-04     95.00    <-- DIS
      42      47.84527015      47.82238541       4.785E-04     96.75    <-- DIS
      43      47.83319872      47.81201083       4.431E-04     98.49    <-- DIS
      44      47.82205586      47.80243462       4.105E-04    100.32    <-- DIS
      45      47.81176897      47.79359458       3.803E-04    102.06    <-- DIS
      46      47.80227128      47.78543344       3.524E-04    103.81    <-- DIS
      47      47.79350138      47.77789848       3.266E-04    105.56    <-- DIS
      48      47.78540272      47.77094116       3.027E-04    107.30    <-- DIS
      49      47.77792326      47.76451675       2.807E-04    109.05    <-- DIS
      50      47.77101507      47.75858405       2.603E-04    110.80    <-- DIS
      51      47.76463399      47.75310508       2.414E-04    112.64    <-- DIS
      52      47.75873933      47.74804484       2.240E-04    114.48    <-- DIS
      53      47.75329361      47.74337106       2.078E-04    116.33    <-- DIS
      54      47.74826227      47.73905399       1.929E-04    118.22    <-- DIS
      55      47.74361343      47.73506620       1.791E-04    119.98    <-- DIS
      56      47.73931771      47.73138237       1.663E-04    121.72    <-- DIS
      57      47.73534804      47.72797918       1.544E-04    123.47    <-- DIS
      58      47.73167940      47.72483509       1.434E-04    125.22    <-- DIS
      59      47.72828875      47.72193024       1.332E-04    126.96    <-- DIS
      60      47.72515483      47.71924630       1.238E-04    128.71    <-- DIS
      61      47.72225800      47.71676637       1.151E-04    130.46    <-- DIS
      62      47.71958016      47.71447484       1.070E-04    132.20    <-- DIS
      63      47.71710460      47.71235730       9.950E-05    133.95    <-- DIS
      64      47.71481590      47.71040047       9.255E-05    135.69    <-- DIS
      65      47.71269982      47.70859207       8.610E-05    137.44    <-- DIS
      66      47.71074322      47.70692078       8.012E-05    139.18    <-- DIS
      67      47.70893397      47.70537614       7.458E-05    140.93    <-- DIS
      68      47.70726088      47.70394851       6.944E-05    142.67    <-- DIS
      69      47.70571359      47.70262897       6.466E-05    144.42    <-- DIS
      70      47.70428257      47.70140929       6.023E-05    146.16    <-- DIS
      71      47.70295900      47.70028188       5.612E-05    147.96    <-- DIS
      72      47.70173473      47.69923971       5.231E-05    149.85    <-- DIS
      73      47.70060224      47.69827631       4.876E-05    151.73    <-- DIS
      74      47.69955459      47.69738570       4.547E-05    153.62    <-- DIS
      75      47.69858537      47.69656235       4.241E-05    155.50    <-- DIS
      76      47.69768864      47.69580115       3.957E-05    157.39    <-- DIS
      77      47.69685893      47.69509739       3.693E-05    159.27    <-- DIS
      78      47.69609119      47.69444672       3.448E-05    161.16    <-- DIS
      79      47.69538074      47.69384511       3.220E-05    162.97    <-- DIS
      80      47.69472327      47.69328885       3.008E-05    164.71    <-- DIS
      81      47.69411478      47.69277450       2.810E-05    166.46    <-- DIS
      82      47.69355159      47.69229889       2.627E-05    168.21    <-- DIS
      83      47.69303029      47.69185910       2.456E-05    169.95    <-- DIS
      84      47.69254774      47.69145240       2.297E-05    171.70    <-- DIS
      85      47.69210102      47.69107631       2.149E-05    173.44    <-- DIS
      86      47.69168745      47.69072850       2.011E-05    175.19    <-- DIS
      87      47.69130454      47.69040685       1.882E-05    176.93    <-- DIS
      88      47.69094999      47.69010937       1.763E-05    178.79    <-- DIS
      89      47.69062168      47.68983425       1.651E-05    180.68    <-- DIS
      90      47.69031765      47.68957979       1.547E-05    182.57    <-- DIS
      91      47.69003607      47.68934445       1.450E-05    184.46    <-- DIS
      92      47.68977528      47.68912677       1.360E-05    186.29    <-- DIS
      93      47.68953371      47.68892543       1.276E-05    188.04    <-- DIS
      94      47.68930994      47.68873920       1.197E-05    189.79    <-- DIS
      95      47.68910264      47.68856693       1.123E-05    191.53    <-- DIS
      96      47.68891058      47.68840759       1.055E-05    193.28    <-- DIS
      97      47.68873263      47.68826019       9.907E-06    195.02    <-- DIS
      98      47.68856773      47.68812383       9.308E-06    196.77    <-- DIS
      99      47.68841491      47.68799770       8.749E-06    198.51    <-- DIS
     100      47.68827329      47.68788101       8.226E-06    200.26    <-- DIS
     101      47.68814202      47.68777306       7.737E-06    202.01    <-- DIS
     102      47.68802034      47.68767319       7.280E-06    203.75    <-- DIS
     103      47.68790754      47.68758080       6.852E-06    205.50    <-- DIS
     104      47.68780296      47.68749532       6.451E-06    207.24    <-- DIS
     105      47.68770600      47.68741624       6.076E-06    208.99    <-- DIS
     106      47.68761608      47.68734307       5.725E-06    210.73    <-- DIS
     107      47.68753270      47.68727537       5.396E-06    212.48    <-- DIS
     108      47.68745536      47.68721273       5.088E-06    214.22    <-- DIS
     109      47.68738362      47.68715478       4.799E-06    215.97    <-- DIS
     110      47.68731707      47.68710116       4.528E-06    217.72    <-- DIS
     111      47.68725533      47.68705154       4.273E-06    219.52    <-- DIS
     112      47.68719804      47.68700563       4.035E-06    221.40    <-- DIS
     113      47.68714488      47.68696315       3.811E-06    223.29    <-- DIS
     114      47.68709554      47.68692384       3.601E-06    225.17    <-- DIS
     115      47.68704975      47.68688746       3.403E-06    227.06    <-- DIS
     116      47.68700723      47.68685380       3.218E-06    228.94    <-- DIS
     117      47.68696777      47.68682265       3.043E-06    230.83    <-- DIS
     118      47.68693112      47.68679383       2.879E-06    232.66    <-- DIS
     119      47.68689708      47.68676715       2.725E-06    234.41    <-- DIS
     120      47.68686548      47.68674247       2.579E-06    236.16    <-- DIS
     121      47.68683611      47.68671962       2.443E-06    237.90    <-- DIS
     122      47.68680884      47.68669848       2.314E-06    239.65    <-- DIS
     123      47.68678349      47.68667892       2.193E-06    241.39    <-- DIS
     124      47.68675994      47.68666081       2.079E-06    243.14    <-- DIS
     125      47.68673805      47.68664405       1.971E-06    244.98    <-- DIS
     126      47.68671770      47.68662854       1.870E-06    246.73    <-- DIS
     127      47.68669878      47.68661419       1.774E-06    248.47    <-- DIS
     128      47.68668118      47.68660090       1.684E-06    250.22    <-- DIS
     129      47.68666482      47.68658861       1.598E-06    251.96    <-- DIS
     130      47.68664960      47.68657723       1.518E-06    253.71    <-- DIS
     131      47.68663544      47.68656669       1.442E-06    255.50    <-- DIS
     132      47.68662227      47.68655694       1.370E-06    257.38    <-- DIS
     133      47.68661001      47.68654792       1.302E-06    259.17    <-- DIS
     134      47.68659860      47.68653957       1.238E-06    260.92    <-- DIS
     135      47.68658797      47.68653184       1.177E-06    262.66    <-- DIS
     136      47.68657808      47.68652468       1.120E-06    264.41    <-- DIS
     137      47.68656886      47.68651806       1.065E-06    266.15    <-- DIS
     138      47.68656027      47.68651193       1.014E-06    267.90    <-- DIS
     139      47.68655228      47.68650625       9.652E-07    269.65    <-- DIS
     140      47.68654482      47.68650100       9.190E-07    271.39    <-- DIS
     141      47.68653787      47.68649614       8.753E-07    273.14    <-- DIS
     142      47.68653140      47.68649163       8.338E-07    274.89    <-- DIS
     143      47.68652535      47.68648747       7.945E-07    276.63    <-- DIS
     144      47.68651972      47.68648361       7.572E-07    278.38    <-- DIS
     145      47.68651446      47.68648004       7.218E-07    280.12    <-- DIS
     146      47.68650956      47.68647674       6.882E-07    281.87    <-- DIS
     147      47.68650498      47.68647368       6.564E-07    283.61    <-- DIS
     148      47.68650070      47.68647084       6.261E-07    285.40    <-- DIS
     149      47.68649671      47.68646822       5.974E-07    287.29    <-- DIS
     150      47.68649298      47.68646579       5.700E-07    289.18    <-- DIS
     151      47.68648949      47.68646355       5.441E-07    291.06    <-- DIS
     152      47.68648624      47.68646147       5.194E-07    292.96    <-- DIS
     153      47.68648319      47.68645954       4.959E-07    294.86    <-- DIS
     154      47.68648034      47.68645776       4.736E-07    296.76    <-- DIS
     155      47.68647768      47.68645611       4.524E-07    298.65    <-- DIS
     156      47.68647519      47.68645458       4.322E-07    300.45    <-- DIS
     157      47.68647286      47.68645317       4.129E-07    302.19    <-- DIS
     158      47.68647067      47.68645186       3.946E-07    303.94    <-- DIS
     159      47.68646863      47.68645064       3.772E-07    305.69    <-- DIS
     160      47.68646672      47.68644952       3.606E-07    307.43    <-- DIS
     161      47.68646492      47.68644848       3.447E-07    309.18    <-- DIS
     162      47.68646324      47.68644752       3.296E-07    310.93    <-- DIS
     163      47.68646166      47.68644663       3.153E-07    312.67    <-- DIS
     164      47.68646018      47.68644580       3.016E-07    314.42    <-- DIS
     165      47.68645880      47.68644504       2.885E-07    316.24    <-- DIS
     166      47.68645750      47.68644433       2.760E-07    318.03    <-- DIS
     167      47.68645627      47.68644368       2.641E-07    319.77    <-- DIS
     168      47.68645513      47.68644307       2.528E-07    321.57    <-- DIS
     169      47.68645405      47.68644251       2.419E-07    323.46    <-- DIS
     170      47.68645304      47.68644199       2.316E-07    325.35    <-- DIS
     171      47.68645208      47.68644151       2.217E-07    327.24    <-- DIS
     172      47.68645119      47.68644107       2.123E-07    329.14    <-- DIS
     173      47.68645035      47.68644065       2.033E-07    330.95    <-- DIS
     174      47.68644956      47.68644027       1.947E-07    332.70    <-- DIS
     175      47.68644881      47.68643992       1.864E-07    334.45    <-- DIS
     176      47.68644811      47.68643959       1.786E-07    336.19    <-- DIS
     177      47.68644745      47.68643929       1.711E-07    337.94    <-- DIS
     178      47.68644682      47.68643901       1.639E-07    339.69    <-- DIS
     179      47.68644624      47.68643875       1.570E-07    341.46    <-- DIS
     180      47.68644568      47.68643851       1.505E-07    343.20    <-- DIS
     181      47.68644516      47.68643829       1.442E-07    344.95    <-- DIS
     182      47.68644467      47.68643808       1.382E-07    346.70    <-- DIS
     183      47.68644421      47.68643789       1.325E-07    348.45    <-- DIS
     184      47.68644377      47.68643771       1.270E-07    350.19    <-- DIS
     185      47.68644335      47.68643755       1.217E-07    351.99    <-- DIS
     186      47.68644296      47.68643740       1.167E-07    353.81    <-- DIS
     187      47.68644259      47.68643726       1.119E-07    355.56    <-- DIS
     188      47.68644224      47.68643713       1.073E-07    357.30    <-- DIS
     189      47.68644191      47.68643701       1.029E-07    359.05    <-- DIS
     190      47.68644160      47.68643689       9.866E-08    360.80    <-- DIS
     191      47.68644130      47.68643679       9.462E-08    362.54    <-- DIS
     192      47.68644102      47.68643670       9.075E-08    364.29    <-- DIS
     193      47.68644076      47.68643661       8.704E-08    366.04    <-- DIS
     194      47.68644051      47.68643653       8.349E-08    367.78    <-- DIS
     195      47.68644027      47.68643645       8.009E-08    369.53    <-- DIS
     196      47.68644004      47.68643638       7.683E-08    371.27    <-- DIS
     197      47.68643983      47.68643631       7.371E-08    373.02    <-- DIS
     198      47.68643963      47.68643625       7.072E-08    374.77    <-- DIS
     199      47.68643943      47.68643620       6.786E-08    376.51    <-- DIS
     200      47.68643925      47.68643615       6.511E-08    378.26    <-- DIS

     <<< Warning: Maximum number of disentanglement iterations reached >>>
          <<< Disentanglement convergence criteria not satisfied >>>

        Final Omega_I    47.68643615 (Ang^2)

 +----------------------------------------------------------------------------+

 Time to disentangle bands    369.235 (sec)

 Writing checkpoint file wannier90.chk... done


 *------------------------------- WANNIERISE ---------------------------------*
 +--------------------------------------------------------------------+<-- CONV
 | Iter  Delta Spread     RMS Gradient      Spread (Ang^2)      Time  |<-- CONV
 +--------------------------------------------------------------------+<-- CONV

 ------------------------------------------------------------------------------
 Initial State
  WF centre and spread    1  (  1.950000, -1.950000,  0.000000 )     0.76320133
  WF centre and spread    2  (  1.950000, -1.950000,  0.000000 )     1.04411536
  WF centre and spread    3  (  1.950000, -1.950000,  0.000000 )     1.04411538
  WF centre and spread    4  (  1.950000, -1.950000,  3.900000 )     0.76320131
  WF centre and spread    5  (  1.950000, -1.950000,  3.900000 )     1.04411553
  WF centre and spread    6  (  1.950000, -1.950000,  3.900000 )     1.04411539
  WF centre and spread    7  (  1.950000,  1.950000, -0.000000 )     0.76320134
  WF centre and spread    8  (  1.950000,  1.950000,  0.000000 )     1.04411538
  WF centre and spread    9  (  1.950000,  1.950000,  0.000000 )     1.04411536
  WF centre and spread   10  (  1.950000, -0.000000,  1.950000 )     1.04709368
  WF centre and spread   11  (  1.950000,  0.000000,  1.950000 )     1.04674889
  WF centre and spread   12  (  1.950000, -0.000000,  1.950000 )     0.76417148
  WF centre and spread   13  (  1.950000,  1.950000,  3.900000 )     0.76320132
  WF centre and spread   14  (  1.950000,  1.950000,  3.900000 )     1.04411539
  WF centre and spread   15  (  1.950000,  1.950000,  3.900000 )     1.04411553
  WF centre and spread   16  (  1.950000, -0.000000,  5.850000 )     1.04709384
  WF centre and spread   17  (  1.950000, -0.000000,  5.850000 )     1.04674887
  WF centre and spread   18  (  1.950000, -0.000000,  5.850000 )     0.76417138
  WF centre and spread   19  (  3.900000, -1.950000,  1.950000 )     1.04709385
  WF centre and spread   20  (  3.900000, -1.950000,  1.950000 )     0.76417137
  WF centre and spread   21  (  3.900000, -1.950000,  1.950000 )     1.04674887
  WF centre and spread   22  (  3.900000, -1.950000,  5.850000 )     1.04709368
  WF centre and spread   23  (  3.900000, -1.950000,  5.850000 )     0.76417149
  WF centre and spread   24  (  3.900000, -1.950000,  5.850000 )     1.04674889
  WF centre and spread   25  (  3.900000,  1.950000,  1.950000 )     1.04709367
  WF centre and spread   26  (  3.900000,  1.950000,  1.950000 )     0.76417149
  WF centre and spread   27  (  3.900000,  1.950000,  1.950000 )     1.04674889
  WF centre and spread   28  (  5.850000,  0.000000,  1.950000 )     1.04709384
  WF centre and spread   29  (  5.850000,  0.000000,  1.950000 )     1.04674887
  WF centre and spread   30  (  5.850000,  0.000000,  1.950000 )     0.76417138
  WF centre and spread   31  (  3.900000,  1.950000,  5.850000 )     1.04709385
  WF centre and spread   32  (  3.900000,  1.950000,  5.850000 )     0.76417137
  WF centre and spread   33  (  3.900000,  1.950000,  5.850000 )     1.04674887
  WF centre and spread   34  (  5.850000,  0.000000,  5.850000 )     1.04709368
  WF centre and spread   35  (  5.850000,  0.000000,  5.850000 )     1.04674889
  WF centre and spread   36  (  5.850000,  0.000000,  5.850000 )     0.76417148
  WF centre and spread   37  (  1.950000, -1.950000,  1.950000 )     0.68961949
  WF centre and spread   38  (  1.950000, -1.950000,  1.950000 )     0.85841026
  WF centre and spread   39  (  1.950000, -1.950000,  1.950000 )     0.85840966
  WF centre and spread   40  (  1.950000, -1.950000,  1.950000 )     0.68889747
  WF centre and spread   41  (  1.950000, -1.950000,  1.950000 )     0.85333138
  WF centre and spread   42  (  1.950000, -1.950000,  5.850000 )     0.68961949
  WF centre and spread   43  (  1.950000, -1.950000,  5.850000 )     0.85841025
  WF centre and spread   44  (  1.950000, -1.950000,  5.850000 )     0.85840967
  WF centre and spread   45  (  1.950000, -1.950000,  5.850000 )     0.68889747
  WF centre and spread   46  (  1.950000, -1.950000,  5.850000 )     0.85333138
  WF centre and spread   47  (  1.950000,  1.950000,  1.950000 )     0.68961950
  WF centre and spread   48  (  1.950000,  1.950000,  1.950000 )     0.85840966
  WF centre and spread   49  (  1.950000,  1.950000,  1.950000 )     0.85841026
  WF centre and spread   50  (  1.950000,  1.950000,  1.950000 )     0.68889747
  WF centre and spread   51  (  1.950000,  1.950000,  1.950000 )     0.85333138
  WF centre and spread   52  (  1.950000,  1.950000,  5.850000 )     0.68961950
  WF centre and spread   53  (  1.950000,  1.950000,  5.850000 )     0.85840967
  WF centre and spread   54  (  1.950000,  1.950000,  5.850000 )     0.85841025
  WF centre and spread   55  (  1.950000,  1.950000,  5.850000 )     0.68889747
  WF centre and spread   56  (  1.950000,  1.950000,  5.850000 )     0.85333138
  Sum of centres and spreads (156.000000,  0.000000,195.000000 )    50.06451423

      0     0.501E+02     0.0000000000       50.0645142291     383.63  <-- CONV
        O_D=      0.0000000 O_OD=      2.3780781 O_TOT=     50.0645142 <-- SPRD
 ------------------------------------------------------------------------------
 Cycle:      1
  WF centre and spread    1  (  1.950000, -1.950000,  0.000000 )     0.75258249
  WF centre and spread    2  (  1.950000, -1.950000,  0.000000 )     1.03030780
  WF centre and spread    3  (  1.950000, -1.950000,  0.000000 )     1.03030782
  WF centre and spread    4  (  1.950000, -1.950000,  3.900000 )     0.75258248
  WF centre and spread    5  (  1.950000, -1.950000,  3.900000 )     1.03030795
  WF centre and spread    6  (  1.950000, -1.950000,  3.900000 )     1.03030784
  WF centre and spread    7  (  1.950000,  1.950000, -0.000000 )     0.75258249
  WF centre and spread    8  (  1.950000,  1.950000,  0.000000 )     1.03030782
  WF centre and spread    9  (  1.950000,  1.950000,  0.000000 )     1.03030780
  WF centre and spread   10  (  1.950000, -0.000000,  1.950000 )     1.03311800
  WF centre and spread   11  (  1.950000, -0.000000,  1.950000 )     1.03375139
  WF centre and spread   12  (  1.950000, -0.000000,  1.950000 )     0.75395415
  WF centre and spread   13  (  1.950000,  1.950000,  3.900000 )     0.75258248
  WF centre and spread   14  (  1.950000,  1.950000,  3.900000 )     1.03030784
  WF centre and spread   15  (  1.950000,  1.950000,  3.900000 )     1.03030795
  WF centre and spread   16  (  1.950000, -0.000000,  5.850000 )     1.03311814
  WF centre and spread   17  (  1.950000, -0.000000,  5.850000 )     1.03375140
  WF centre and spread   18  (  1.950000, -0.000000,  5.850000 )     0.75395404
  WF centre and spread   19  (  3.900000, -1.950000,  1.950000 )     1.03311815
  WF centre and spread   20  (  3.900000, -1.950000,  1.950000 )     0.75395404
  WF centre and spread   21  (  3.900000, -1.950000,  1.950000 )     1.03375140
  WF centre and spread   22  (  3.900000, -1.950000,  5.850000 )     1.03311800
  WF centre and spread   23  (  3.900000, -1.950000,  5.850000 )     0.75395416
  WF centre and spread   24  (  3.900000, -1.950000,  5.850000 )     1.03375140
  WF centre and spread   25  (  3.900000,  1.950000,  1.950000 )     1.03311799
  WF centre and spread   26  (  3.900000,  1.950000,  1.950000 )     0.75395416
  WF centre and spread   27  (  3.900000,  1.950000,  1.950000 )     1.03375140
  WF centre and spread   28  (  5.850000,  0.000000,  1.950000 )     1.03311814
  WF centre and spread   29  (  5.850000,  0.000000,  1.950000 )     1.03375140
  WF centre and spread   30  (  5.850000,  0.000000,  1.950000 )     0.75395404
  WF centre and spread   31  (  3.900000,  1.950000,  5.850000 )     1.03311814
  WF centre and spread   32  (  3.900000,  1.950000,  5.850000 )     0.75395404
  WF centre and spread   33  (  3.900000,  1.950000,  5.850000 )     1.03375139
  WF centre and spread   34  (  5.850000,  0.000000,  5.850000 )     1.03311800
  WF centre and spread   35  (  5.850000,  0.000000,  5.850000 )     1.03375139
  WF centre and spread   36  (  5.850000,  0.000000,  5.850000 )     0.75395415
  WF centre and spread   37  (  1.950000, -1.950000,  1.950000 )     0.67437667
  WF centre and spread   38  (  1.950000, -1.950000,  1.950000 )     0.84610377
  WF centre and spread   39  (  1.950000, -1.950000,  1.950000 )     0.84610319
  WF centre and spread   40  (  1.950000, -1.950000,  1.950000 )     0.67512750
  WF centre and spread   41  (  1.950000, -1.950000,  1.950000 )     0.84065859
  WF centre and spread   42  (  1.950000, -1.950000,  5.850000 )     0.67437667
  WF centre and spread   43  (  1.950000, -1.950000,  5.850000 )     0.84610376
  WF centre and spread   44  (  1.950000, -1.950000,  5.850000 )     0.84610320
  WF centre and spread   45  (  1.950000, -1.950000,  5.850000 )     0.67512750
  WF centre and spread   46  (  1.950000, -1.950000,  5.850000 )     0.84065859
  WF centre and spread   47  (  1.950000,  1.950000,  1.950000 )     0.67437669
  WF centre and spread   48  (  1.950000,  1.950000,  1.950000 )     0.84610319
  WF centre and spread   49  (  1.950000,  1.950000,  1.950000 )     0.84610377
  WF centre and spread   50  (  1.950000,  1.950000,  1.950000 )     0.67512749
  WF centre and spread   51  (  1.950000,  1.950000,  1.950000 )     0.84065859
  WF centre and spread   52  (  1.950000,  1.950000,  5.850000 )     0.67437669
  WF centre and spread   53  (  1.950000,  1.950000,  5.850000 )     0.84610319
  WF centre and spread   54  (  1.950000,  1.950000,  5.850000 )     0.84610376
  WF centre and spread   55  (  1.950000,  1.950000,  5.850000 )     0.67512749
  WF centre and spread   56  (  1.950000,  1.950000,  5.850000 )     0.84065859
  Sum of centres and spreads (156.000000,  0.000000,195.000000 )    49.34886017

      1    -0.716E+00     0.8449835992       49.3488601717     387.46  <-- CONV
        O_D=      0.0000000 O_OD=      1.6624240 O_TOT=     49.3488602 <-- SPRD
 Delta: O_D=  0.8298642E-08 O_OD= -0.7156541E+00 O_TOT= -0.7156541E+00 <-- DLTA
 ------------------------------------------------------------------------------
 Cycle:      2
  WF centre and spread    1  (  1.950000, -1.950000,  0.000000 )     0.75011816
  WF centre and spread    2  (  1.950000, -1.950000,  0.000000 )     1.02599716
  WF centre and spread    3  (  1.950000, -1.950000,  0.000000 )     1.02599718
  WF centre and spread    4  (  1.950000, -1.950000,  3.900000 )     0.75011814
  WF centre and spread    5  (  1.950000, -1.950000,  3.900000 )     1.02599730
  WF centre and spread    6  (  1.950000, -1.950000,  3.900000 )     1.02599720
  WF centre and spread    7  (  1.950000,  1.950000, -0.000000 )     0.75011817
  WF centre and spread    8  (  1.950000,  1.950000,  0.000000 )     1.02599718
  WF centre and spread    9  (  1.950000,  1.950000,  0.000000 )     1.02599717
  WF centre and spread   10  (  1.950000, -0.000000,  1.950000 )     1.02882659
  WF centre and spread   11  (  1.950000, -0.000000,  1.950000 )     1.02975034
  WF centre and spread   12  (  1.950000, -0.000000,  1.950000 )     0.75112617
  WF centre and spread   13  (  1.950000,  1.950000,  3.900000 )     0.75011815
  WF centre and spread   14  (  1.950000,  1.950000,  3.900000 )     1.02599720
  WF centre and spread   15  (  1.950000,  1.950000,  3.900000 )     1.02599730
  WF centre and spread   16  (  1.950000, -0.000000,  5.850000 )     1.02882673
  WF centre and spread   17  (  1.950000, -0.000000,  5.850000 )     1.02975034
  WF centre and spread   18  (  1.950000, -0.000000,  5.850000 )     0.75112605
  WF centre and spread   19  (  3.900000, -1.950000,  1.950000 )     1.02882674
  WF centre and spread   20  (  3.900000, -1.950000,  1.950000 )     0.75112605
  WF centre and spread   21  (  3.900000, -1.950000,  1.950000 )     1.02975034
  WF centre and spread   22  (  3.900000, -1.950000,  5.850000 )     1.02882659
  WF centre and spread   23  (  3.900000, -1.950000,  5.850000 )     0.75112618
  WF centre and spread   24  (  3.900000, -1.950000,  5.850000 )     1.02975035
  WF centre and spread   25  (  3.900000,  1.950000,  1.950000 )     1.02882658
  WF centre and spread   26  (  3.900000,  1.950000,  1.950000 )     0.75112618
  WF centre and spread   27  (  3.900000,  1.950000,  1.950000 )     1.02975035
  WF centre and spread   28  (  5.850000,  0.000000,  1.950000 )     1.02882673
  WF centre and spread   29  (  5.850000,  0.000000,  1.950000 )     1.02975035
  WF centre and spread   30  (  5.850000,  0.000000,  1.950000 )     0.75112606
  WF centre and spread   31  (  3.900000,  1.950000,  5.850000 )     1.02882673
  WF centre and spread   32  (  3.900000,  1.950000,  5.850000 )     0.75112605
  WF centre and spread   33  (  3.900000,  1.950000,  5.850000 )     1.02975034
  WF centre and spread   34  (  5.850000,  0.000000,  5.850000 )     1.02882659
  WF centre and spread   35  (  5.850000,  0.000000,  5.850000 )     1.02975035
  WF centre and spread   36  (  5.850000,  0.000000,  5.850000 )     0.75112617
  WF centre and spread   37  (  1.950000, -1.950000,  1.950000 )     0.67060436
  WF centre and spread   38  (  1.950000, -1.950000,  1.950000 )     0.84091841
  WF centre and spread   39  (  1.950000, -1.950000,  1.950000 )     0.84091784
  WF centre and spread   40  (  1.950000, -1.950000,  1.950000 )     0.67078165
  WF centre and spread   41  (  1.950000, -1.950000,  1.950000 )     0.83688870
  WF centre and spread   42  (  1.950000, -1.950000,  5.850000 )     0.67060436
  WF centre and spread   43  (  1.950000, -1.950000,  5.850000 )     0.84091840
  WF centre and spread   44  (  1.950000, -1.950000,  5.850000 )     0.84091784
  WF centre and spread   45  (  1.950000, -1.950000,  5.850000 )     0.67078165
  WF centre and spread   46  (  1.950000, -1.950000,  5.850000 )     0.83688870
  WF centre and spread   47  (  1.950000,  1.950000,  1.950000 )     0.67060438
  WF centre and spread   48  (  1.950000,  1.950000,  1.950000 )     0.84091784
  WF centre and spread   49  (  1.950000,  1.950000,  1.950000 )     0.84091840
  WF centre and spread   50  (  1.950000,  1.950000,  1.950000 )     0.67078165
  WF centre and spread   51  (  1.950000,  1.950000,  1.950000 )     0.83688870
  WF centre and spread   52  (  1.950000,  1.950000,  5.850000 )     0.67060438
  WF centre and spread   53  (  1.950000,  1.950000,  5.850000 )     0.84091784
  WF centre and spread   54  (  1.950000,  1.950000,  5.850000 )     0.84091840
  WF centre and spread   55  (  1.950000,  1.950000,  5.850000 )     0.67078165
  WF centre and spread   56  (  1.950000,  1.950000,  5.850000 )     0.83688870
  Sum of centres and spreads (156.000000,  0.000000,195.000000 )    49.12651909

      2    -0.222E+00     0.8305521485       49.1265190879     391.55  <-- CONV
        O_D=      0.0000000 O_OD=      1.4400829 O_TOT=     49.1265191 <-- SPRD
 Delta: O_D= -0.6565499E-08 O_OD= -0.2223411E+00 O_TOT= -0.2223411E+00 <-- DLTA
 ------------------------------------------------------------------------------
 Cycle:      3
  WF centre and spread    1  (  1.950000, -1.950000,  0.000000 )     0.74759690
  WF centre and spread    2  (  1.950000, -1.950000,  0.000000 )     1.02213673
  WF centre and spread    3  (  1.950000, -1.950000,  0.000000 )     1.02213674
  WF centre and spread    4  (  1.950000, -1.950000,  3.900000 )     0.74759689
  WF centre and spread    5  (  1.950000, -1.950000,  3.900000 )     1.02213686
  WF centre and spread    6  (  1.950000, -1.950000,  3.900000 )     1.02213677
  WF centre and spread    7  (  1.950000,  1.950000, -0.000000 )     0.74759691
  WF centre and spread    8  (  1.950000,  1.950000,  0.000000 )     1.02213674
  WF centre and spread    9  (  1.950000,  1.950000,  0.000000 )     1.02213673
  WF centre and spread   10  (  1.950000, -0.000000,  1.950000 )     1.02479727
  WF centre and spread   11  (  1.950000, -0.000000,  1.950000 )     1.02597269
  WF centre and spread   12  (  1.950000, -0.000000,  1.950000 )     0.74838243
  WF centre and spread   13  (  1.950000,  1.950000,  3.900000 )     0.74759689
  WF centre and spread   14  (  1.950000,  1.950000,  3.900000 )     1.02213677
  WF centre and spread   15  (  1.950000,  1.950000,  3.900000 )     1.02213686
  WF centre and spread   16  (  1.950000, -0.000000,  5.850000 )     1.02479739
  WF centre and spread   17  (  1.950000, -0.000000,  5.850000 )     1.02597269
  WF centre and spread   18  (  1.950000, -0.000000,  5.850000 )     0.74838233
  WF centre and spread   19  (  3.900000, -1.950000,  1.950000 )     1.02479740
  WF centre and spread   20  (  3.900000, -1.950000,  1.950000 )     0.74838232
  WF centre and spread   21  (  3.900000, -1.950000,  1.950000 )     1.02597269
  WF centre and spread   22  (  3.900000, -1.950000,  5.850000 )     1.02479727
  WF centre and spread   23  (  3.900000, -1.950000,  5.850000 )     0.74838244
  WF centre and spread   24  (  3.900000, -1.950000,  5.850000 )     1.02597270
  WF centre and spread   25  (  3.900000,  1.950000,  1.950000 )     1.02479726
  WF centre and spread   26  (  3.900000,  1.950000,  1.950000 )     0.74838243
  WF centre and spread   27  (  3.900000,  1.950000,  1.950000 )     1.02597270
  WF centre and spread   28  (  5.850000,  0.000000,  1.950000 )     1.02479739
  WF centre and spread   29  (  5.850000,  0.000000,  1.950000 )     1.02597269
  WF centre and spread   30  (  5.850000,  0.000000,  1.950000 )     0.74838233
  WF centre and spread   31  (  3.900000,  1.950000,  5.850000 )     1.02479739
  WF centre and spread   32  (  3.900000,  1.950000,  5.850000 )     0.74838233
  WF centre and spread   33  (  3.900000,  1.950000,  5.850000 )     1.02597269
  WF centre and spread   34  (  5.850000,  0.000000,  5.850000 )     1.02479727
  WF centre and spread   35  (  5.850000,  0.000000,  5.850000 )     1.02597270
  WF centre and spread   36  (  5.850000,  0.000000,  5.850000 )     0.74838243
  WF centre and spread   37  (  1.950000, -1.950000,  1.950000 )     0.67005207
  WF centre and spread   38  (  1.950000, -1.950000,  1.950000 )     0.83723700
  WF centre and spread   39  (  1.950000, -1.950000,  1.950000 )     0.83723642
  WF centre and spread   40  (  1.950000, -1.950000,  1.950000 )     0.66995616
  WF centre and spread   41  (  1.950000, -1.950000,  1.950000 )     0.83375607
  WF centre and spread   42  (  1.950000, -1.950000,  5.850000 )     0.67005207
  WF centre and spread   43  (  1.950000, -1.950000,  5.850000 )     0.83723699
  WF centre and spread   44  (  1.950000, -1.950000,  5.850000 )     0.83723642
  WF centre and spread   45  (  1.950000, -1.950000,  5.850000 )     0.66995616
  WF centre and spread   46  (  1.950000, -1.950000,  5.850000 )     0.83375607
  WF centre and spread   47  (  1.950000,  1.950000,  1.950000 )     0.67005208
  WF centre and spread   48  (  1.950000,  1.950000,  1.950000 )     0.83723642
  WF centre and spread   49  (  1.950000,  1.950000,  1.950000 )     0.83723700
  WF centre and spread   50  (  1.950000,  1.950000,  1.950000 )     0.66995616
  WF centre and spread   51  (  1.950000,  1.950000,  1.950000 )     0.83375607
  WF centre and spread   52  (  1.950000,  1.950000,  5.850000 )     0.67005208
  WF centre and spread   53  (  1.950000,  1.950000,  5.850000 )     0.83723642
  WF centre and spread   54  (  1.950000,  1.950000,  5.850000 )     0.83723699
  WF centre and spread   55  (  1.950000,  1.950000,  5.850000 )     0.66995616
  WF centre and spread   56  (  1.950000,  1.950000,  5.850000 )     0.83375607
  Sum of centres and spreads (156.000000,  0.000000,195.000000 )    48.95365188

      3    -0.173E+00     0.6312249252       48.9536518778     395.70  <-- CONV
        O_D=      0.0000000 O_OD=      1.2672157 O_TOT=     48.9536519 <-- SPRD
 Delta: O_D=  0.2990758E-09 O_OD= -0.1728672E+00 O_TOT= -0.1728672E+00 <-- DLTA
 ------------------------------------------------------------------------------
 Cycle:      4
  WF centre and spread    1  (  1.950000, -1.950000,  0.000000 )     0.74579351
  WF centre and spread    2  (  1.950000, -1.950000,  0.000000 )     1.01946092
  WF centre and spread    3  (  1.950000, -1.950000,  0.000000 )     1.01946093
  WF centre and spread    4  (  1.950000, -1.950000,  3.900000 )     0.74579349
  WF centre and spread    5  (  1.950000, -1.950000,  3.900000 )     1.01946105
  WF centre and spread    6  (  1.950000, -1.950000,  3.900000 )     1.01946096
  WF centre and spread    7  (  1.950000,  1.950000, -0.000000 )     0.74579351
  WF centre and spread    8  (  1.950000,  1.950000,  0.000000 )     1.01946093
  WF centre and spread    9  (  1.950000,  1.950000,  0.000000 )     1.01946092
  WF centre and spread   10  (  1.950000, -0.000000,  1.950000 )     1.02224228
  WF centre and spread   11  (  1.950000, -0.000000,  1.950000 )     1.02319541
  WF centre and spread   12  (  1.950000, -0.000000,  1.950000 )     0.74656345
  WF centre and spread   13  (  1.950000,  1.950000,  3.900000 )     0.74579350
  WF centre and spread   14  (  1.950000,  1.950000,  3.900000 )     1.01946096
  WF centre and spread   15  (  1.950000,  1.950000,  3.900000 )     1.01946105
  WF centre and spread   16  (  1.950000, -0.000000,  5.850000 )     1.02224240
  WF centre and spread   17  (  1.950000, -0.000000,  5.850000 )     1.02319541
  WF centre and spread   18  (  1.950000, -0.000000,  5.850000 )     0.74656336
  WF centre and spread   19  (  3.900000, -1.950000,  1.950000 )     1.02224240
  WF centre and spread   20  (  3.900000, -1.950000,  1.950000 )     0.74656335
  WF centre and spread   21  (  3.900000, -1.950000,  1.950000 )     1.02319541
  WF centre and spread   22  (  3.900000, -1.950000,  5.850000 )     1.02224228
  WF centre and spread   23  (  3.900000, -1.950000,  5.850000 )     0.74656345
  WF centre and spread   24  (  3.900000, -1.950000,  5.850000 )     1.02319542
  WF centre and spread   25  (  3.900000,  1.950000,  1.950000 )     1.02224227
  WF centre and spread   26  (  3.900000,  1.950000,  1.950000 )     0.74656345
  WF centre and spread   27  (  3.900000,  1.950000,  1.950000 )     1.02319542
  WF centre and spread   28  (  5.850000,  0.000000,  1.950000 )     1.02224240
  WF centre and spread   29  (  5.850000,  0.000000,  1.950000 )     1.02319541
  WF centre and spread   30  (  5.850000,  0.000000,  1.950000 )     0.74656336
  WF centre and spread   31  (  3.900000,  1.950000,  5.850000 )     1.02224240
  WF centre and spread   32  (  3.900000,  1.950000,  5.850000 )     0.74656336
  WF centre and spread   33  (  3.900000,  1.950000,  5.850000 )     1.02319541
  WF centre and spread   34  (  5.850000,  0.000000,  5.850000 )     1.02224228
  WF centre and spread   35  (  5.850000,  0.000000,  5.850000 )     1.02319541
  WF centre and spread   36  (  5.850000,  0.000000,  5.850000 )     0.74656345
  WF centre and spread   37  (  1.950000, -1.950000,  1.950000 )     0.67102287
  WF centre and spread   38  (  1.950000, -1.950000,  1.950000 )     0.83444769
  WF centre and spread   39  (  1.950000, -1.950000,  1.950000 )     0.83444711
  WF centre and spread   40  (  1.950000, -1.950000,  1.950000 )     0.67084102
  WF centre and spread   41  (  1.950000, -1.950000,  1.950000 )     0.83083555
  WF centre and spread   42  (  1.950000, -1.950000,  5.850000 )     0.67102287
  WF centre and spread   43  (  1.950000, -1.950000,  5.850000 )     0.83444769
  WF centre and spread   44  (  1.950000, -1.950000,  5.850000 )     0.83444712
  WF centre and spread   45  (  1.950000, -1.950000,  5.850000 )     0.67084102
  WF centre and spread   46  (  1.950000, -1.950000,  5.850000 )     0.83083555
  WF centre and spread   47  (  1.950000,  1.950000,  1.950000 )     0.67102288
  WF centre and spread   48  (  1.950000,  1.950000,  1.950000 )     0.83444711
  WF centre and spread   49  (  1.950000,  1.950000,  1.950000 )     0.83444769
  WF centre and spread   50  (  1.950000,  1.950000,  1.950000 )     0.67084102
  WF centre and spread   51  (  1.950000,  1.950000,  1.950000 )     0.83083555
  WF centre and spread   52  (  1.950000,  1.950000,  5.850000 )     0.67102288
  WF centre and spread   53  (  1.950000,  1.950000,  5.850000 )     0.83444712
  WF centre and spread   54  (  1.950000,  1.950000,  5.850000 )     0.83444769
  WF centre and spread   55  (  1.950000,  1.950000,  5.850000 )     0.67084102
  WF centre and spread   56  (  1.950000,  1.950000,  5.850000 )     0.83083555
  Sum of centres and spreads (156.000000,  0.000000,195.000000 )    48.84124792

      4    -0.112E+00     0.5503734435       48.8412479201     399.76  <-- CONV
        O_D=      0.0000000 O_OD=      1.1548118 O_TOT=     48.8412479 <-- SPRD
 Delta: O_D= -0.5632273E-09 O_OD= -0.1124040E+00 O_TOT= -0.1124040E+00 <-- DLTA
 ------------------------------------------------------------------------------
 Cycle:      5
  WF centre and spread    1  (  1.950000, -1.950000,  0.000000 )     0.74425048
  WF centre and spread    2  (  1.950000, -1.950000,  0.000000 )     1.01699097
  WF centre and spread    3  (  1.950000, -1.950000,  0.000000 )     1.01699099
  WF centre and spread    4  (  1.950000, -1.950000,  3.900000 )     0.74425047
  WF centre and spread    5  (  1.950000, -1.950000,  3.900000 )     1.01699107
  WF centre and spread    6  (  1.950000, -1.950000,  3.900000 )     1.01699099
  WF centre and spread    7  (  1.950000,  1.950000, -0.000000 )     0.74425049
  WF centre and spread    8  (  1.950000,  1.950000,  0.000000 )     1.01699099
  WF centre and spread    9  (  1.950000,  1.950000,  0.000000 )     1.01699097
  WF centre and spread   10  (  1.950000, -0.000000,  1.950000 )     1.01979701
  WF centre and spread   11  (  1.950000, -0.000000,  1.950000 )     1.02062967
  WF centre and spread   12  (  1.950000, -0.000000,  1.950000 )     0.74492329
  WF centre and spread   13  (  1.950000,  1.950000,  3.900000 )     0.74425047
  WF centre and spread   14  (  1.950000,  1.950000,  3.900000 )     1.01699099
  WF centre and spread   15  (  1.950000,  1.950000,  3.900000 )     1.01699107
  WF centre and spread   16  (  1.950000, -0.000000,  5.850000 )     1.01979711
  WF centre and spread   17  (  1.950000, -0.000000,  5.850000 )     1.02062967
  WF centre and spread   18  (  1.950000, -0.000000,  5.850000 )     0.74492322
  WF centre and spread   19  (  3.900000, -1.950000,  1.950000 )     1.01979712
  WF centre and spread   20  (  3.900000, -1.950000,  1.950000 )     0.74492321
  WF centre and spread   21  (  3.900000, -1.950000,  1.950000 )     1.02062967
  WF centre and spread   22  (  3.900000, -1.950000,  5.850000 )     1.01979701
  WF centre and spread   23  (  3.900000, -1.950000,  5.850000 )     0.74492329
  WF centre and spread   24  (  3.900000, -1.950000,  5.850000 )     1.02062968
  WF centre and spread   25  (  3.900000,  1.950000,  1.950000 )     1.01979700
  WF centre and spread   26  (  3.900000,  1.950000,  1.950000 )     0.74492329
  WF centre and spread   27  (  3.900000,  1.950000,  1.950000 )     1.02062968
  WF centre and spread   28  (  5.850000,  0.000000,  1.950000 )     1.01979712
  WF centre and spread   29  (  5.850000,  0.000000,  1.950000 )     1.02062967
  WF centre and spread   30  (  5.850000,  0.000000,  1.950000 )     0.74492322
  WF centre and spread   31  (  3.900000,  1.950000,  5.850000 )     1.01979712
  WF centre and spread   32  (  3.900000,  1.950000,  5.850000 )     0.74492321
  WF centre and spread   33  (  3.900000,  1.950000,  5.850000 )     1.02062967
  WF centre and spread   34  (  5.850000,  0.000000,  5.850000 )     1.01979701
  WF centre and spread   35  (  5.850000,  0.000000,  5.850000 )     1.02062967
  WF centre and spread   36  (  5.850000,  0.000000,  5.850000 )     0.74492329
  WF centre and spread   37  (  1.950000, -1.950000,  1.950000 )     0.67262578
  WF centre and spread   38  (  1.950000, -1.950000,  1.950000 )     0.83220633
  WF centre and spread   39  (  1.950000, -1.950000,  1.950000 )     0.83220575
  WF centre and spread   40  (  1.950000, -1.950000,  1.950000 )     0.67231704
  WF centre and spread   41  (  1.950000, -1.950000,  1.950000 )     0.82862424
  WF centre and spread   42  (  1.950000, -1.950000,  5.850000 )     0.67262578
  WF centre and spread   43  (  1.950000, -1.950000,  5.850000 )     0.83220632
  WF centre and spread   44  (  1.950000, -1.950000,  5.850000 )     0.83220576
  WF centre and spread   45  (  1.950000, -1.950000,  5.850000 )     0.67231704
  WF centre and spread   46  (  1.950000, -1.950000,  5.850000 )     0.82862424
  WF centre and spread   47  (  1.950000,  1.950000,  1.950000 )     0.67262579
  WF centre and spread   48  (  1.950000,  1.950000,  1.950000 )     0.83220575
  WF centre and spread   49  (  1.950000,  1.950000,  1.950000 )     0.83220632
  WF centre and spread   50  (  1.950000,  1.950000,  1.950000 )     0.67231704
  WF centre and spread   51  (  1.950000,  1.950000,  1.950000 )     0.82862424
  WF centre and spread   52  (  1.950000,  1.950000,  5.850000 )     0.67262579
  WF centre and spread   53  (  1.950000,  1.950000,  5.850000 )     0.83220576
  WF centre and spread   54  (  1.950000,  1.950000,  5.850000 )     0.83220632
  WF centre and spread   55  (  1.950000,  1.950000,  5.850000 )     0.67231704
  WF centre and spread   56  (  1.950000,  1.950000,  5.850000 )     0.82862424
  Sum of centres and spreads (156.000000,  0.000000,195.000000 )    48.74764639

      5    -0.936E-01     0.4666806443       48.7476463896     403.82  <-- CONV
        O_D=      0.0000000 O_OD=      1.0612102 O_TOT=     48.7476464 <-- SPRD
 Delta: O_D= -0.1685369E-08 O_OD= -0.9360153E-01 O_TOT= -0.9360153E-01 <-- DLTA
 ------------------------------------------------------------------------------
 Cycle:      6
  WF centre and spread    1  (  1.950000, -1.950000,  0.000000 )     0.74295948
  WF centre and spread    2  (  1.950000, -1.950000,  0.000000 )     1.01447050
  WF centre and spread    3  (  1.950000, -1.950000,  0.000000 )     1.01447051
  WF centre and spread    4  (  1.950000, -1.950000,  3.900000 )     0.74295947
  WF centre and spread    5  (  1.950000, -1.950000,  3.900000 )     1.01447058
  WF centre and spread    6  (  1.950000, -1.950000,  3.900000 )     1.01447051
  WF centre and spread    7  (  1.950000,  1.950000, -0.000000 )     0.74295949
  WF centre and spread    8  (  1.950000,  1.950000,  0.000000 )     1.01447051
  WF centre and spread    9  (  1.950000,  1.950000,  0.000000 )     1.01447050
  WF centre and spread   10  (  1.950000, -0.000000,  1.950000 )     1.01745661
  WF centre and spread   11  (  1.950000, -0.000000,  1.950000 )     1.01819927
  WF centre and spread   12  (  1.950000, -0.000000,  1.950000 )     0.74361134
  WF centre and spread   13  (  1.950000,  1.950000,  3.900000 )     0.74295948
  WF centre and spread   14  (  1.950000,  1.950000,  3.900000 )     1.01447051
  WF centre and spread   15  (  1.950000,  1.950000,  3.900000 )     1.01447058
  WF centre and spread   16  (  1.950000, -0.000000,  5.850000 )     1.01745673
  WF centre and spread   17  (  1.950000, -0.000000,  5.850000 )     1.01819927
  WF centre and spread   18  (  1.950000, -0.000000,  5.850000 )     0.74361127
  WF centre and spread   19  (  3.900000, -1.950000,  1.950000 )     1.01745673
  WF centre and spread   20  (  3.900000, -1.950000,  1.950000 )     0.74361127
  WF centre and spread   21  (  3.900000, -1.950000,  1.950000 )     1.01819927
  WF centre and spread   22  (  3.900000, -1.950000,  5.850000 )     1.01745661
  WF centre and spread   23  (  3.900000, -1.950000,  5.850000 )     0.74361134
  WF centre and spread   24  (  3.900000, -1.950000,  5.850000 )     1.01819928
  WF centre and spread   25  (  3.900000,  1.950000,  1.950000 )     1.01745661
  WF centre and spread   26  (  3.900000,  1.950000,  1.950000 )     0.74361134
  WF centre and spread   27  (  3.900000,  1.950000,  1.950000 )     1.01819928
  WF centre and spread   28  (  5.850000,  0.000000,  1.950000 )     1.01745673
  WF centre and spread   29  (  5.850000,  0.000000,  1.950000 )     1.01819927
  WF centre and spread   30  (  5.850000,  0.000000,  1.950000 )     0.74361127
  WF centre and spread   31  (  3.900000,  1.950000,  5.850000 )     1.01745673
  WF centre and spread   32  (  3.900000,  1.950000,  5.850000 )     0.74361127
  WF centre and spread   33  (  3.900000,  1.950000,  5.850000 )     1.01819927
  WF centre and spread   34  (  5.850000,  0.000000,  5.850000 )     1.01745661
  WF centre and spread   35  (  5.850000,  0.000000,  5.850000 )     1.01819927
  WF centre and spread   36  (  5.850000,  0.000000,  5.850000 )     0.74361134
  WF centre and spread   37  (  1.950000, -1.950000,  1.950000 )     0.67365357
  WF centre and spread   38  (  1.950000, -1.950000,  1.950000 )     0.83049440
  WF centre and spread   39  (  1.950000, -1.950000,  1.950000 )     0.83049382
  WF centre and spread   40  (  1.950000, -1.950000,  1.950000 )     0.67321132
  WF centre and spread   41  (  1.950000, -1.950000,  1.950000 )     0.82716228
  WF centre and spread   42  (  1.950000, -1.950000,  5.850000 )     0.67365357
  WF centre and spread   43  (  1.950000, -1.950000,  5.850000 )     0.83049439
  WF centre and spread   44  (  1.950000, -1.950000,  5.850000 )     0.83049382
  WF centre and spread   45  (  1.950000, -1.950000,  5.850000 )     0.67321132
  WF centre and spread   46  (  1.950000, -1.950000,  5.850000 )     0.82716228
  WF centre and spread   47  (  1.950000,  1.950000,  1.950000 )     0.67365358
  WF centre and spread   48  (  1.950000,  1.950000,  1.950000 )     0.83049382
  WF centre and spread   49  (  1.950000,  1.950000,  1.950000 )     0.83049440
  WF centre and spread   50  (  1.950000,  1.950000,  1.950000 )     0.67321131
  WF centre and spread   51  (  1.950000,  1.950000,  1.950000 )     0.82716228
  WF centre and spread   52  (  1.950000,  1.950000,  5.850000 )     0.67365358
  WF centre and spread   53  (  1.950000,  1.950000,  5.850000 )     0.83049382
  WF centre and spread   54  (  1.950000,  1.950000,  5.850000 )     0.83049439
  WF centre and spread   55  (  1.950000,  1.950000,  5.850000 )     0.67321132
  WF centre and spread   56  (  1.950000,  1.950000,  5.850000 )     0.82716228
  Sum of centres and spreads (156.000000,  0.000000,195.000000 )    48.66180163

      6    -0.858E-01     0.4417495598       48.6618016266     407.89  <-- CONV
        O_D=      0.0000000 O_OD=      0.9753655 O_TOT=     48.6618016 <-- SPRD
 Delta: O_D=  0.8697599E-09 O_OD= -0.8584476E-01 O_TOT= -0.8584476E-01 <-- DLTA
 ------------------------------------------------------------------------------
 Cycle:      7
  WF centre and spread    1  (  1.950000, -1.950000,  0.000000 )     0.74241669
  WF centre and spread    2  (  1.950000, -1.950000,  0.000000 )     1.01369053
  WF centre and spread    3  (  1.950000, -1.950000,  0.000000 )     1.01369054
  WF centre and spread    4  (  1.950000, -1.950000,  3.900000 )     0.74241668
  WF centre and spread    5  (  1.950000, -1.950000,  3.900000 )     1.01369060
  WF centre and spread    6  (  1.950000, -1.950000,  3.900000 )     1.01369054
  WF centre and spread    7  (  1.950000,  1.950000, -0.000000 )     0.74241670
  WF centre and spread    8  (  1.950000,  1.950000,  0.000000 )     1.01369054
  WF centre and spread    9  (  1.950000,  1.950000,  0.000000 )     1.01369053
  WF centre and spread   10  (  1.950000, -0.000000,  1.950000 )     1.01662441
  WF centre and spread   11  (  1.950000, -0.000000,  1.950000 )     1.01745395
  WF centre and spread   12  (  1.950000, -0.000000,  1.950000 )     0.74310928
  WF centre and spread   13  (  1.950000,  1.950000,  3.900000 )     0.74241669
  WF centre and spread   14  (  1.950000,  1.950000,  3.900000 )     1.01369054
  WF centre and spread   15  (  1.950000,  1.950000,  3.900000 )     1.01369060
  WF centre and spread   16  (  1.950000, -0.000000,  5.850000 )     1.01662453
  WF centre and spread   17  (  1.950000, -0.000000,  5.850000 )     1.01745395
  WF centre and spread   18  (  1.950000, -0.000000,  5.850000 )     0.74310922
  WF centre and spread   19  (  3.900000, -1.950000,  1.950000 )     1.01662454
  WF centre and spread   20  (  3.900000, -1.950000,  1.950000 )     0.74310922
  WF centre and spread   21  (  3.900000, -1.950000,  1.950000 )     1.01745394
  WF centre and spread   22  (  3.900000, -1.950000,  5.850000 )     1.01662441
  WF centre and spread   23  (  3.900000, -1.950000,  5.850000 )     0.74310929
  WF centre and spread   24  (  3.900000, -1.950000,  5.850000 )     1.01745396
  WF centre and spread   25  (  3.900000,  1.950000,  1.950000 )     1.01662441
  WF centre and spread   26  (  3.900000,  1.950000,  1.950000 )     0.74310929
  WF centre and spread   27  (  3.900000,  1.950000,  1.950000 )     1.01745396
  WF centre and spread   28  (  5.850000,  0.000000,  1.950000 )     1.01662453
  WF centre and spread   29  (  5.850000,  0.000000,  1.950000 )     1.01745395
  WF centre and spread   30  (  5.850000,  0.000000,  1.950000 )     0.74310922
  WF centre and spread   31  (  3.900000,  1.950000,  5.850000 )     1.01662453
  WF centre and spread   32  (  3.900000,  1.950000,  5.850000 )     0.74310922
  WF centre and spread   33  (  3.900000,  1.950000,  5.850000 )     1.01745394
  WF centre and spread   34  (  5.850000,  0.000000,  5.850000 )     1.01662441
  WF centre and spread   35  (  5.850000,  0.000000,  5.850000 )     1.01745395
  WF centre and spread   36  (  5.850000,  0.000000,  5.850000 )     0.74310928
  WF centre and spread   37  (  1.950000, -1.950000,  1.950000 )     0.67258766
  WF centre and spread   38  (  1.950000, -1.950000,  1.950000 )     0.82982976
  WF centre and spread   39  (  1.950000, -1.950000,  1.950000 )     0.82982918
  WF centre and spread   40  (  1.950000, -1.950000,  1.950000 )     0.67192835
  WF centre and spread   41  (  1.950000, -1.950000,  1.950000 )     0.82660392
  WF centre and spread   42  (  1.950000, -1.950000,  5.850000 )     0.67258766
  WF centre and spread   43  (  1.950000, -1.950000,  5.850000 )     0.82982976
  WF centre and spread   44  (  1.950000, -1.950000,  5.850000 )     0.82982919
  WF centre and spread   45  (  1.950000, -1.950000,  5.850000 )     0.67192835
  WF centre and spread   46  (  1.950000, -1.950000,  5.850000 )     0.82660392
  WF centre and spread   47  (  1.950000,  1.950000,  1.950000 )     0.67258767
  WF centre and spread   48  (  1.950000,  1.950000,  1.950000 )     0.82982918
  WF centre and spread   49  (  1.950000,  1.950000,  1.950000 )     0.82982976
  WF centre and spread   50  (  1.950000,  1.950000,  1.950000 )     0.67192835
  WF centre and spread   51  (  1.950000,  1.950000,  1.950000 )     0.82660392
  WF centre and spread   52  (  1.950000,  1.950000,  5.850000 )     0.67258767
  WF centre and spread   53  (  1.950000,  1.950000,  5.850000 )     0.82982919
  WF centre and spread   54  (  1.950000,  1.950000,  5.850000 )     0.82982976
  WF centre and spread   55  (  1.950000,  1.950000,  5.850000 )     0.67192835
  WF centre and spread   56  (  1.950000,  1.950000,  5.850000 )     0.82660392
  Sum of centres and spreads (156.000000,  0.000000,195.000000 )    48.61980804

      7    -0.420E-01     0.4260928593       48.6198080389     412.02  <-- CONV
        O_D=      0.0000000 O_OD=      0.9333719 O_TOT=     48.6198080 <-- SPRD
 Delta: O_D= -0.1873188E-08 O_OD= -0.4199359E-01 O_TOT= -0.4199359E-01 <-- DLTA
 ------------------------------------------------------------------------------
 Cycle:      8
  WF centre and spread    1  (  1.950000, -1.950000,  0.000000 )     0.74196218
  WF centre and spread    2  (  1.950000, -1.950000,  0.000000 )     1.01273791
  WF centre and spread    3  (  1.950000, -1.950000,  0.000000 )     1.01273792
  WF centre and spread    4  (  1.950000, -1.950000,  3.900000 )     0.74196216
  WF centre and spread    5  (  1.950000, -1.950000,  3.900000 )     1.01273800
  WF centre and spread    6  (  1.950000, -1.950000,  3.900000 )     1.01273792
  WF centre and spread    7  (  1.950000,  1.950000, -0.000000 )     0.74196218
  WF centre and spread    8  (  1.950000,  1.950000,  0.000000 )     1.01273792
  WF centre and spread    9  (  1.950000,  1.950000,  0.000000 )     1.01273791
  WF centre and spread   10  (  1.950000, -0.000000,  1.950000 )     1.01557422
  WF centre and spread   11  (  1.950000, -0.000000,  1.950000 )     1.01658348
  WF centre and spread   12  (  1.950000, -0.000000,  1.950000 )     0.74271744
  WF centre and spread   13  (  1.950000,  1.950000,  3.900000 )     0.74196217
  WF centre and spread   14  (  1.950000,  1.950000,  3.900000 )     1.01273792
  WF centre and spread   15  (  1.950000,  1.950000,  3.900000 )     1.01273800
  WF centre and spread   16  (  1.950000, -0.000000,  5.850000 )     1.01557434
  WF centre and spread   17  (  1.950000, -0.000000,  5.850000 )     1.01658348
  WF centre and spread   18  (  1.950000, -0.000000,  5.850000 )     0.74271738
  WF centre and spread   19  (  3.900000, -1.950000,  1.950000 )     1.01557435
  WF centre and spread   20  (  3.900000, -1.950000,  1.950000 )     0.74271738
  WF centre and spread   21  (  3.900000, -1.950000,  1.950000 )     1.01658348
  WF centre and spread   22  (  3.900000, -1.950000,  5.850000 )     1.01557422
  WF centre and spread   23  (  3.900000, -1.950000,  5.850000 )     0.74271745
  WF centre and spread   24  (  3.900000, -1.950000,  5.850000 )     1.01658349
  WF centre and spread   25  (  3.900000,  1.950000,  1.950000 )     1.01557422
  WF centre and spread   26  (  3.900000,  1.950000,  1.950000 )     0.74271745
  WF centre and spread   27  (  3.900000,  1.950000,  1.950000 )     1.01658349
  WF centre and spread   28  (  5.850000,  0.000000,  1.950000 )     1.01557434
  WF centre and spread   29  (  5.850000,  0.000000,  1.950000 )     1.01658348
  WF centre and spread   30  (  5.850000,  0.000000,  1.950000 )     0.74271738
  WF centre and spread   31  (  3.900000,  1.950000,  5.850000 )     1.01557435
  WF centre and spread   32  (  3.900000,  1.950000,  5.850000 )     0.74271738
  WF centre and spread   33  (  3.900000,  1.950000,  5.850000 )     1.01658348
  WF centre and spread   34  (  5.850000,  0.000000,  5.850000 )     1.01557422
  WF centre and spread   35  (  5.850000,  0.000000,  5.850000 )     1.01658348
  WF centre and spread   36  (  5.850000,  0.000000,  5.850000 )     0.74271744
  WF centre and spread   37  (  1.950000, -1.950000,  1.950000 )     0.67134742
  WF centre and spread   38  (  1.950000, -1.950000,  1.950000 )     0.82952783
  WF centre and spread   39  (  1.950000, -1.950000,  1.950000 )     0.82952724
  WF centre and spread   40  (  1.950000, -1.950000,  1.950000 )     0.67077336
  WF centre and spread   41  (  1.950000, -1.950000,  1.950000 )     0.82627777
  WF centre and spread   42  (  1.950000, -1.950000,  5.850000 )     0.67134742
  WF centre and spread   43  (  1.950000, -1.950000,  5.850000 )     0.82952783
  WF centre and spread   44  (  1.950000, -1.950000,  5.850000 )     0.82952724
  WF centre and spread   45  (  1.950000, -1.950000,  5.850000 )     0.67077336
[...]
  WF centre and spread   15  (  1.950000,  1.950000,  3.900000 )     1.00657640
  WF centre and spread   16  (  1.950000, -0.000000,  5.850000 )     1.00955634
  WF centre and spread   17  (  1.950000, -0.000000,  5.850000 )     1.01062586
  WF centre and spread   18  (  1.950000, -0.000000,  5.850000 )     0.73956224
  WF centre and spread   19  (  3.900000, -1.950000,  1.950000 )     1.00955635
  WF centre and spread   20  (  3.900000, -1.950000,  1.950000 )     0.73956224
  WF centre and spread   21  (  3.900000, -1.950000,  1.950000 )     1.01062586
  WF centre and spread   22  (  3.900000, -1.950000,  5.850000 )     1.00955622
  WF centre and spread   23  (  3.900000, -1.950000,  5.850000 )     0.73956232
  WF centre and spread   24  (  3.900000, -1.950000,  5.850000 )     1.01062586
  WF centre and spread   25  (  3.900000,  1.950000,  1.950000 )     1.00955622
  WF centre and spread   26  (  3.900000,  1.950000,  1.950000 )     0.73956232
  WF centre and spread   27  (  3.900000,  1.950000,  1.950000 )     1.01062586
  WF centre and spread   28  (  5.850000,  0.000000,  1.950000 )     1.00955634
  WF centre and spread   29  (  5.850000,  0.000000,  1.950000 )     1.01062586
  WF centre and spread   30  (  5.850000,  0.000000,  1.950000 )     0.73956224
  WF centre and spread   31  (  3.900000,  1.950000,  5.850000 )     1.00955635
  WF centre and spread   32  (  3.900000,  1.950000,  5.850000 )     0.73956224
  WF centre and spread   33  (  3.900000,  1.950000,  5.850000 )     1.01062586
  WF centre and spread   34  (  5.850000,  0.000000,  5.850000 )     1.00955622
  WF centre and spread   35  (  5.850000,  0.000000,  5.850000 )     1.01062586
  WF centre and spread   36  (  5.850000,  0.000000,  5.850000 )     0.73956232
  WF centre and spread   37  (  1.950000, -1.950000,  1.950000 )     0.67200475
  WF centre and spread   38  (  1.950000, -1.950000,  1.950000 )     0.83146975
  WF centre and spread   39  (  1.950000, -1.950000,  1.950000 )     0.83146911
  WF centre and spread   40  (  1.950000, -1.950000,  1.950000 )     0.67120104
  WF centre and spread   41  (  1.950000, -1.950000,  1.950000 )     0.82834927
  WF centre and spread   42  (  1.950000, -1.950000,  5.850000 )     0.67200475
  WF centre and spread   43  (  1.950000, -1.950000,  5.850000 )     0.83146975
  WF centre and spread   44  (  1.950000, -1.950000,  5.850000 )     0.83146911
  WF centre and spread   45  (  1.950000, -1.950000,  5.850000 )     0.67120104
  WF centre and spread   46  (  1.950000, -1.950000,  5.850000 )     0.82834927
  WF centre and spread   47  (  1.950000,  1.950000,  1.950000 )     0.67200476
  WF centre and spread   48  (  1.950000,  1.950000,  1.950000 )     0.83146911
  WF centre and spread   49  (  1.950000,  1.950000,  1.950000 )     0.83146975
  WF centre and spread   50  (  1.950000,  1.950000,  1.950000 )     0.67120104
  WF centre and spread   51  (  1.950000,  1.950000,  1.950000 )     0.82834927
  WF centre and spread   52  (  1.950000,  1.950000,  5.850000 )     0.67200476
  WF centre and spread   53  (  1.950000,  1.950000,  5.850000 )     0.83146911
  WF centre and spread   54  (  1.950000,  1.950000,  5.850000 )     0.83146975
  WF centre and spread   55  (  1.950000,  1.950000,  5.850000 )     0.67120104
  WF centre and spread   56  (  1.950000,  1.950000,  5.850000 )     0.82834927
  Sum of centres and spreads (156.000000,  0.000000,195.000000 )    48.42326944

    298    -0.497E-12     0.0000030355       48.4232694381    1375.65  <-- CONV
        O_D=      0.0000000 O_OD=      0.7368333 O_TOT=     48.4232694 <-- SPRD
 Delta: O_D= -0.6244659E-17 O_OD= -0.4931611E-12 O_TOT= -0.4973799E-12 <-- DLTA
 ------------------------------------------------------------------------------
 Cycle:    299
  WF centre and spread    1  (  1.950000, -1.950000,  0.000000 )     0.73868194
  WF centre and spread    2  (  1.950000, -1.950000,  0.000000 )     1.00657629
  WF centre and spread    3  (  1.950000, -1.950000,  0.000000 )     1.00657631
  WF centre and spread    4  (  1.950000, -1.950000,  3.900000 )     0.73868192
  WF centre and spread    5  (  1.950000, -1.950000,  3.900000 )     1.00657640
  WF centre and spread    6  (  1.950000, -1.950000,  3.900000 )     1.00657630
  WF centre and spread    7  (  1.950000,  1.950000, -0.000000 )     0.73868194
  WF centre and spread    8  (  1.950000,  1.950000,  0.000000 )     1.00657631
  WF centre and spread    9  (  1.950000,  1.950000,  0.000000 )     1.00657629
  WF centre and spread   10  (  1.950000, -0.000000,  1.950000 )     1.00955622
  WF centre and spread   11  (  1.950000, -0.000000,  1.950000 )     1.01062586
  WF centre and spread   12  (  1.950000, -0.000000,  1.950000 )     0.73956232
  WF centre and spread   13  (  1.950000,  1.950000,  3.900000 )     0.73868193
  WF centre and spread   14  (  1.950000,  1.950000,  3.900000 )     1.00657630
  WF centre and spread   15  (  1.950000,  1.950000,  3.900000 )     1.00657640
  WF centre and spread   16  (  1.950000, -0.000000,  5.850000 )     1.00955634
  WF centre and spread   17  (  1.950000, -0.000000,  5.850000 )     1.01062586
  WF centre and spread   18  (  1.950000, -0.000000,  5.850000 )     0.73956224
  WF centre and spread   19  (  3.900000, -1.950000,  1.950000 )     1.00955635
  WF centre and spread   20  (  3.900000, -1.950000,  1.950000 )     0.73956224
  WF centre and spread   21  (  3.900000, -1.950000,  1.950000 )     1.01062586
  WF centre and spread   22  (  3.900000, -1.950000,  5.850000 )     1.00955622
  WF centre and spread   23  (  3.900000, -1.950000,  5.850000 )     0.73956232
  WF centre and spread   24  (  3.900000, -1.950000,  5.850000 )     1.01062586
  WF centre and spread   25  (  3.900000,  1.950000,  1.950000 )     1.00955622
  WF centre and spread   26  (  3.900000,  1.950000,  1.950000 )     0.73956232
  WF centre and spread   27  (  3.900000,  1.950000,  1.950000 )     1.01062586
  WF centre and spread   28  (  5.850000,  0.000000,  1.950000 )     1.00955634
  WF centre and spread   29  (  5.850000,  0.000000,  1.950000 )     1.01062586
  WF centre and spread   30  (  5.850000,  0.000000,  1.950000 )     0.73956224
  WF centre and spread   31  (  3.900000,  1.950000,  5.850000 )     1.00955635
  WF centre and spread   32  (  3.900000,  1.950000,  5.850000 )     0.73956224
  WF centre and spread   33  (  3.900000,  1.950000,  5.850000 )     1.01062586
  WF centre and spread   34  (  5.850000,  0.000000,  5.850000 )     1.00955622
  WF centre and spread   35  (  5.850000,  0.000000,  5.850000 )     1.01062586
  WF centre and spread   36  (  5.850000,  0.000000,  5.850000 )     0.73956232
  WF centre and spread   37  (  1.950000, -1.950000,  1.950000 )     0.67200475
  WF centre and spread   38  (  1.950000, -1.950000,  1.950000 )     0.83146975
  WF centre and spread   39  (  1.950000, -1.950000,  1.950000 )     0.83146911
  WF centre and spread   40  (  1.950000, -1.950000,  1.950000 )     0.67120104
  WF centre and spread   41  (  1.950000, -1.950000,  1.950000 )     0.82834927
  WF centre and spread   42  (  1.950000, -1.950000,  5.850000 )     0.67200475
  WF centre and spread   43  (  1.950000, -1.950000,  5.850000 )     0.83146975
  WF centre and spread   44  (  1.950000, -1.950000,  5.850000 )     0.83146911
  WF centre and spread   45  (  1.950000, -1.950000,  5.850000 )     0.67120104
  WF centre and spread   46  (  1.950000, -1.950000,  5.850000 )     0.82834927
  WF centre and spread   47  (  1.950000,  1.950000,  1.950000 )     0.67200476
  WF centre and spread   48  (  1.950000,  1.950000,  1.950000 )     0.83146911
  WF centre and spread   49  (  1.950000,  1.950000,  1.950000 )     0.83146975
  WF centre and spread   50  (  1.950000,  1.950000,  1.950000 )     0.67120104
  WF centre and spread   51  (  1.950000,  1.950000,  1.950000 )     0.82834927
  WF centre and spread   52  (  1.950000,  1.950000,  5.850000 )     0.67200476
  WF centre and spread   53  (  1.950000,  1.950000,  5.850000 )     0.83146911
  WF centre and spread   54  (  1.950000,  1.950000,  5.850000 )     0.83146975
  WF centre and spread   55  (  1.950000,  1.950000,  5.850000 )     0.67120104
  WF centre and spread   56  (  1.950000,  1.950000,  5.850000 )     0.82834927
  Sum of centres and spreads (156.000000,  0.000000,195.000000 )    48.42326944

    299    -0.469E-12     0.0000030270       48.4232694381    1379.60  <-- CONV
        O_D=      0.0000000 O_OD=      0.7368333 O_TOT=     48.4232694 <-- SPRD
 Delta: O_D= -0.5766027E-17 O_OD= -0.4671818E-12 O_TOT= -0.4689582E-12 <-- DLTA
 ------------------------------------------------------------------------------
 Cycle:    300
  WF centre and spread    1  (  1.950000, -1.950000,  0.000000 )     0.73868193
  WF centre and spread    2  (  1.950000, -1.950000,  0.000000 )     1.00657629
  WF centre and spread    3  (  1.950000, -1.950000,  0.000000 )     1.00657631
  WF centre and spread    4  (  1.950000, -1.950000,  3.900000 )     0.73868192
  WF centre and spread    5  (  1.950000, -1.950000,  3.900000 )     1.00657640
  WF centre and spread    6  (  1.950000, -1.950000,  3.900000 )     1.00657630
  WF centre and spread    7  (  1.950000,  1.950000, -0.000000 )     0.73868194
  WF centre and spread    8  (  1.950000,  1.950000,  0.000000 )     1.00657631
  WF centre and spread    9  (  1.950000,  1.950000,  0.000000 )     1.00657629
  WF centre and spread   10  (  1.950000, -0.000000,  1.950000 )     1.00955622
  WF centre and spread   11  (  1.950000, -0.000000,  1.950000 )     1.01062585
  WF centre and spread   12  (  1.950000, -0.000000,  1.950000 )     0.73956232
  WF centre and spread   13  (  1.950000,  1.950000,  3.900000 )     0.73868193
  WF centre and spread   14  (  1.950000,  1.950000,  3.900000 )     1.00657630
  WF centre and spread   15  (  1.950000,  1.950000,  3.900000 )     1.00657640
  WF centre and spread   16  (  1.950000, -0.000000,  5.850000 )     1.00955634
  WF centre and spread   17  (  1.950000, -0.000000,  5.850000 )     1.01062586
  WF centre and spread   18  (  1.950000, -0.000000,  5.850000 )     0.73956224
  WF centre and spread   19  (  3.900000, -1.950000,  1.950000 )     1.00955635
  WF centre and spread   20  (  3.900000, -1.950000,  1.950000 )     0.73956224
  WF centre and spread   21  (  3.900000, -1.950000,  1.950000 )     1.01062586
  WF centre and spread   22  (  3.900000, -1.950000,  5.850000 )     1.00955622
  WF centre and spread   23  (  3.900000, -1.950000,  5.850000 )     0.73956232
  WF centre and spread   24  (  3.900000, -1.950000,  5.850000 )     1.01062586
  WF centre and spread   25  (  3.900000,  1.950000,  1.950000 )     1.00955622
  WF centre and spread   26  (  3.900000,  1.950000,  1.950000 )     0.73956232
  WF centre and spread   27  (  3.900000,  1.950000,  1.950000 )     1.01062586
  WF centre and spread   28  (  5.850000,  0.000000,  1.950000 )     1.00955634
  WF centre and spread   29  (  5.850000,  0.000000,  1.950000 )     1.01062586
  WF centre and spread   30  (  5.850000,  0.000000,  1.950000 )     0.73956224
  WF centre and spread   31  (  3.900000,  1.950000,  5.850000 )     1.00955635
  WF centre and spread   32  (  3.900000,  1.950000,  5.850000 )     0.73956224
  WF centre and spread   33  (  3.900000,  1.950000,  5.850000 )     1.01062586
  WF centre and spread   34  (  5.850000,  0.000000,  5.850000 )     1.00955622
  WF centre and spread   35  (  5.850000,  0.000000,  5.850000 )     1.01062586
  WF centre and spread   36  (  5.850000,  0.000000,  5.850000 )     0.73956232
  WF centre and spread   37  (  1.950000, -1.950000,  1.950000 )     0.67200475
  WF centre and spread   38  (  1.950000, -1.950000,  1.950000 )     0.83146975
  WF centre and spread   39  (  1.950000, -1.950000,  1.950000 )     0.83146911
  WF centre and spread   40  (  1.950000, -1.950000,  1.950000 )     0.67120104
  WF centre and spread   41  (  1.950000, -1.950000,  1.950000 )     0.82834927
  WF centre and spread   42  (  1.950000, -1.950000,  5.850000 )     0.67200475
  WF centre and spread   43  (  1.950000, -1.950000,  5.850000 )     0.83146975
  WF centre and spread   44  (  1.950000, -1.950000,  5.850000 )     0.83146911
  WF centre and spread   45  (  1.950000, -1.950000,  5.850000 )     0.67120104
  WF centre and spread   46  (  1.950000, -1.950000,  5.850000 )     0.82834928
  WF centre and spread   47  (  1.950000,  1.950000,  1.950000 )     0.67200477
  WF centre and spread   48  (  1.950000,  1.950000,  1.950000 )     0.83146911
  WF centre and spread   49  (  1.950000,  1.950000,  1.950000 )     0.83146975
  WF centre and spread   50  (  1.950000,  1.950000,  1.950000 )     0.67120104
  WF centre and spread   51  (  1.950000,  1.950000,  1.950000 )     0.82834927
  WF centre and spread   52  (  1.950000,  1.950000,  5.850000 )     0.67200477
  WF centre and spread   53  (  1.950000,  1.950000,  5.850000 )     0.83146911
  WF centre and spread   54  (  1.950000,  1.950000,  5.850000 )     0.83146975
  WF centre and spread   55  (  1.950000,  1.950000,  5.850000 )     0.67120104
  WF centre and spread   56  (  1.950000,  1.950000,  5.850000 )     0.82834928
  Sum of centres and spreads (156.000000,  0.000000,195.000000 )    48.42326944

    300    -0.195E-11     0.0000030191       48.4232694381    1383.57  <-- CONV
        O_D=      0.0000000 O_OD=      0.7368333 O_TOT=     48.4232694 <-- SPRD
 Delta: O_D= -0.2526820E-16 O_OD= -0.1955991E-11 O_TOT= -0.1953993E-11 <-- DLTA
 ------------------------------------------------------------------------------

 Writing checkpoint file wannier90.chk... done

 Final State
  WF centre and spread    1  (  1.950000, -1.950000,  0.000000 )     0.73868193
  WF centre and spread    2  (  1.950000, -1.950000,  0.000000 )     1.00657629
  WF centre and spread    3  (  1.950000, -1.950000,  0.000000 )     1.00657631
  WF centre and spread    4  (  1.950000, -1.950000,  3.900000 )     0.73868192
  WF centre and spread    5  (  1.950000, -1.950000,  3.900000 )     1.00657640
  WF centre and spread    6  (  1.950000, -1.950000,  3.900000 )     1.00657630
  WF centre and spread    7  (  1.950000,  1.950000, -0.000000 )     0.73868194
  WF centre and spread    8  (  1.950000,  1.950000,  0.000000 )     1.00657631
  WF centre and spread    9  (  1.950000,  1.950000,  0.000000 )     1.00657629
  WF centre and spread   10  (  1.950000, -0.000000,  1.950000 )     1.00955622
  WF centre and spread   11  (  1.950000, -0.000000,  1.950000 )     1.01062585
  WF centre and spread   12  (  1.950000, -0.000000,  1.950000 )     0.73956232
  WF centre and spread   13  (  1.950000,  1.950000,  3.900000 )     0.73868193
  WF centre and spread   14  (  1.950000,  1.950000,  3.900000 )     1.00657630
  WF centre and spread   15  (  1.950000,  1.950000,  3.900000 )     1.00657640
  WF centre and spread   16  (  1.950000, -0.000000,  5.850000 )     1.00955634
  WF centre and spread   17  (  1.950000, -0.000000,  5.850000 )     1.01062586
  WF centre and spread   18  (  1.950000, -0.000000,  5.850000 )     0.73956224
  WF centre and spread   19  (  3.900000, -1.950000,  1.950000 )     1.00955635
  WF centre and spread   20  (  3.900000, -1.950000,  1.950000 )     0.73956224
  WF centre and spread   21  (  3.900000, -1.950000,  1.950000 )     1.01062586
  WF centre and spread   22  (  3.900000, -1.950000,  5.850000 )     1.00955622
  WF centre and spread   23  (  3.900000, -1.950000,  5.850000 )     0.73956232
  WF centre and spread   24  (  3.900000, -1.950000,  5.850000 )     1.01062586
  WF centre and spread   25  (  3.900000,  1.950000,  1.950000 )     1.00955622
  WF centre and spread   26  (  3.900000,  1.950000,  1.950000 )     0.73956232
  WF centre and spread   27  (  3.900000,  1.950000,  1.950000 )     1.01062586
  WF centre and spread   28  (  5.850000,  0.000000,  1.950000 )     1.00955634
  WF centre and spread   29  (  5.850000,  0.000000,  1.950000 )     1.01062586
  WF centre and spread   30  (  5.850000,  0.000000,  1.950000 )     0.73956224
  WF centre and spread   31  (  3.900000,  1.950000,  5.850000 )     1.00955635
  WF centre and spread   32  (  3.900000,  1.950000,  5.850000 )     0.73956224
  WF centre and spread   33  (  3.900000,  1.950000,  5.850000 )     1.01062586
  WF centre and spread   34  (  5.850000,  0.000000,  5.850000 )     1.00955622
  WF centre and spread   35  (  5.850000,  0.000000,  5.850000 )     1.01062586
  WF centre and spread   36  (  5.850000,  0.000000,  5.850000 )     0.73956232
  WF centre and spread   37  (  1.950000, -1.950000,  1.950000 )     0.67200475
  WF centre and spread   38  (  1.950000, -1.950000,  1.950000 )     0.83146975
  WF centre and spread   39  (  1.950000, -1.950000,  1.950000 )     0.83146911
  WF centre and spread   40  (  1.950000, -1.950000,  1.950000 )     0.67120104
  WF centre and spread   41  (  1.950000, -1.950000,  1.950000 )     0.82834927
  WF centre and spread   42  (  1.950000, -1.950000,  5.850000 )     0.67200475
  WF centre and spread   43  (  1.950000, -1.950000,  5.850000 )     0.83146975
  WF centre and spread   44  (  1.950000, -1.950000,  5.850000 )     0.83146911
  WF centre and spread   45  (  1.950000, -1.950000,  5.850000 )     0.67120104
  WF centre and spread   46  (  1.950000, -1.950000,  5.850000 )     0.82834928
  WF centre and spread   47  (  1.950000,  1.950000,  1.950000 )     0.67200477
  WF centre and spread   48  (  1.950000,  1.950000,  1.950000 )     0.83146911
  WF centre and spread   49  (  1.950000,  1.950000,  1.950000 )     0.83146975
  WF centre and spread   50  (  1.950000,  1.950000,  1.950000 )     0.67120104
  WF centre and spread   51  (  1.950000,  1.950000,  1.950000 )     0.82834927
  WF centre and spread   52  (  1.950000,  1.950000,  5.850000 )     0.67200477
  WF centre and spread   53  (  1.950000,  1.950000,  5.850000 )     0.83146911
  WF centre and spread   54  (  1.950000,  1.950000,  5.850000 )     0.83146975
  WF centre and spread   55  (  1.950000,  1.950000,  5.850000 )     0.67120104
  WF centre and spread   56  (  1.950000,  1.950000,  5.850000 )     0.82834928
  Sum of centres and spreads (156.000000,  0.000000,195.000000 )    48.42326944

         Spreads (Ang^2)       Omega I      =    47.686436146
        ================       Omega D      =     0.000000001
                               Omega OD     =     0.736833291
    Final Spread (Ang^2)       Omega Total  =    48.423269438
 ------------------------------------------------------------------------------

 Wannier centres written to file wannier90_centres.xyz
 Time for wannierise         1000.481 (sec)

 Writing checkpoint file wannier90.chk... done

 *---------------------------------------------------------------------------*
 |                               PLOTTING                                    |
 *---------------------------------------------------------------------------*


 Calculating interpolated band-structure

 Time to calculate interpolated band structure      43.778 (sec)

 Time for plotting             49.703 (sec)
 Total Execution Time        1433.906 (sec)

 *===========================================================================*
 |                             TIMING INFORMATION                            |
 *===========================================================================*
 |    Tag                                                Ncalls      Time (s)|
 |---------------------------------------------------------------------------|
 |kmesh: get                                        :         1         0.635|
 |overlap: read                                     :         1        13.083|
 |dis: main                                         :         1       369.235|
 |wann: main                                        :         1      1000.481|
 |plot: main                                        :         1        49.702|
 *---------------------------------------------------------------------------*

 All done: wannier90 exiting
